 Entering Gaussian System, Link 0=g16
 Initial command:
 /mnt/data/huangshiqing/prog/g16/l1.exe "/mnt/data/huangshiqing/prog/g16/scratch/Gau-16821.inp" -scrdir="/mnt/data/huangshiqing/prog/g16/scratch/"
 Entering Link 1 = /mnt/data/huangshiqing/prog/g16/l1.exe PID=     16822.
  
 Copyright (c) 1988,1990,1992,1993,1995,1998,2003,2009,2016,
            Gaussian, Inc.  All Rights Reserved.
  
 This is part of the Gaussian(R) 16 program.  It is based on
 the Gaussian(R) 09 system (copyright 2009, Gaussian, Inc.),
 the Gaussian(R) 03 system (copyright 2003, Gaussian, Inc.),
 the Gaussian(R) 98 system (copyright 1998, Gaussian, Inc.),
 the Gaussian(R) 94 system (copyright 1995, Gaussian, Inc.),
 the Gaussian 92(TM) system (copyright 1992, Gaussian, Inc.),
 the Gaussian 90(TM) system (copyright 1990, Gaussian, Inc.),
 the Gaussian 88(TM) system (copyright 1988, Gaussian, Inc.),
 the Gaussian 86(TM) system (copyright 1986, Carnegie Mellon
 University), and the Gaussian 82(TM) system (copyright 1983,
 Carnegie Mellon University). Gaussian is a federally registered
 trademark of Gaussian, Inc.
  
 This software contains proprietary and confidential information,
 including trade secrets, belonging to Gaussian, Inc.
  
 This software is provided under written license and may be
 used, copied, transmitted, or stored only in accord with that
 written license.
  
 The following legend is applicable only to US Government
 contracts under FAR:
  
                    RESTRICTED RIGHTS LEGEND
  
 Use, reproduction and disclosure by the US Government is
 subject to restrictions as set forth in subparagraphs (a)
 and (c) of the Commercial Computer Software - Restricted
 Rights clause in FAR 52.227-19.
  
 Gaussian, Inc.
 340 Quinnipiac St., Bldg. 40, Wallingford CT 06492
  
  
 ---------------------------------------------------------------
 Warning -- This program may not be used in any manner that
 competes with the business of Gaussian, Inc. or will provide
 assistance to any competitor of Gaussian, Inc.  The licensee
 of this program is prohibited from giving any competitor of
 Gaussian, Inc. access to this program.  By using this program,
 the user acknowledges that Gaussian, Inc. is engaged in the
 business of creating and licensing software in the field of
 computational chemistry and represents and warrants to the
 licensee that it is not a competitor of Gaussian, Inc. and that
 it will not use this program in any manner prohibited above.
 ---------------------------------------------------------------
  

 Cite this work as:
 Gaussian 16, Revision A.03,
 M. J. Frisch, G. W. Trucks, H. B. Schlegel, G. E. Scuseria, 
 M. A. Robb, J. R. Cheeseman, G. Scalmani, V. Barone, 
 G. A. Petersson, H. Nakatsuji, X. Li, M. Caricato, A. V. Marenich, 
 J. Bloino, B. G. Janesko, R. Gomperts, B. Mennucci, H. P. Hratchian, 
 J. V. Ortiz, A. F. Izmaylov, J. L. Sonnenberg, D. Williams-Young, 
 F. Ding, F. Lipparini, F. Egidi, J. Goings, B. Peng, A. Petrone, 
 T. Henderson, D. Ranasinghe, V. G. Zakrzewski, J. Gao, N. Rega, 
 G. Zheng, W. Liang, M. Hada, M. Ehara, K. Toyota, R. Fukuda, 
 J. Hasegawa, M. Ishida, T. Nakajima, Y. Honda, O. Kitao, H. Nakai, 
 T. Vreven, K. Throssell, J. A. Montgomery, Jr., J. E. Peralta, 
 F. Ogliaro, M. J. Bearpark, J. J. Heyd, E. N. Brothers, K. N. Kudin, 
 V. N. Staroverov, T. A. Keith, R. Kobayashi, J. Normand, 
 K. Raghavachari, A. P. Rendell, J. C. Burant, S. S. Iyengar, 
 J. Tomasi, M. Cossi, J. M. Millam, M. Klene, C. Adamo, R. Cammi, 
 J. W. Ochterski, R. L. Martin, K. Morokuma, O. Farkas, 
 J. B. Foresman, and D. J. Fox, Gaussian, Inc., Wallingford CT, 2016.
 
 ******************************************
 Gaussian 16:  ES64L-G16RevA.03 25-Dec-2016
                 2-Jun-2022 
 ******************************************
 %nprocshared=24
 Will use up to   24 processors via shared memory.
 %mem=24GB
 %oldchk=0102_wB97XD_EtOH.chk
 %chk=0302_wB97XD_EtOH.chk
 Copying data from "0102_wB97XD_EtOH.chk" to current chk file "0302_wB97XD_EtOH.chk"
 IOpt=  2 FromEx=T IUOpen= 4 IOptOp= 5 NList=   0 IFRang= 0 IUIn= 4 IUOut= 2.
 ----------------------------------------------------------------------
 # wB97XD/def2SVP geom=check guess=read TD=(NStates=3, Root=1) SCRF=(SM
 D, solvent=Ethanol, CorrectedLR)
 ----------------------------------------------------------------------
 1/29=2,30=1,38=1,172=1/1;
 2/12=2,40=1/2;
 3/5=43,7=101,11=9,14=-4,25=1,30=1,70=32201,71=1,72=4,74=-58,116=-2/1,2,3,8;
 4/5=1/1;
 5/5=2,38=6,53=4/2;
 8/6=1,10=1,107=1,108=3/1;
 9/8=1,15=1,41=3,42=1,70=2,73=21/14;
 10/5=4,13=10,28=1,74=10/2;
 6/7=2,8=2,9=2,10=2,22=-1/1;
 99/5=1,9=1/99;
 --------------
 02_wB97XD_EtOH
 --------------
 Structure from the checkpoint file:  "0302_wB97XD_EtOH.chk"
 Charge =  0 Multiplicity = 1
 Redundant internal coordinates found in file.  (old form).
 O,0,-2.852622,-2.431643,-0.737025
 C,0,0.992723,0.483981,-0.490679
 C,0,1.892205,-0.655028,-0.426022
 O,0,-3.551387,2.056129,-0.758698
 N,0,3.220124,-0.46283,-0.332286
 H,0,3.586684,0.458916,-0.108336
 C,0,-0.9224,-1.070699,-0.614727
 N,0,-3.199379,-0.189146,-0.737929
 C,0,-0.407138,0.249958,-0.578491
 C,0,1.341394,-1.947683,-0.474608
 H,0,1.995167,-2.81836,-0.430172
 C,0,-1.295824,1.352844,-0.631176
 C,0,-0.811267,2.649243,-0.605128
 H,0,-1.514673,3.482857,-0.646586
 C,0,0.569939,2.884112,-0.530596
 H,0,0.948508,3.907697,-0.51824
 C,0,-2.757709,1.128643,-0.7135
 C,0,1.451266,1.821395,-0.475646
 H,0,2.519523,2.041793,-0.427472
 C,0,-2.361038,-1.311328,-0.699518
 C,0,-4.643659,-0.437323,-0.799356
 H,0,-4.804674,-1.268299,-1.49732
 H,0,-5.104535,0.46169,-1.223845
 C,0,-0.034552,-2.138773,-0.567376
 H,0,-0.432615,-3.155573,-0.596981
 C,0,-5.263004,-0.769089,0.555855
 H,0,-6.334701,-0.966212,0.381924
 H,0,-4.832345,-1.713562,0.928136
 C,0,-5.109955,0.317308,1.617142
 H,0,-5.533805,1.262806,1.238603
 H,0,-4.03746,0.511318,1.792163
 C,0,-5.772744,-0.054623,2.937837
 H,0,-5.343437,-0.981741,3.351821
 H,0,-6.855083,-0.219685,2.809512
 H,0,-5.643038,0.738435,3.690576
 C,0,4.197577,-1.510218,-0.150743
 H,0,4.008698,-2.063976,0.787307
 H,0,4.140851,-2.245253,-0.969579
 C,0,5.589168,-0.886365,-0.153301
 H,0,6.327161,-1.667485,0.128448
 H,0,5.829688,-0.571336,-1.18099
 N,0,5.673113,0.288559,0.69852
 C,0,6.873671,1.057145,0.437661
 H,0,6.869135,1.980259,1.037144
 H,0,7.803937,0.499677,0.682055
 H,0,6.920546,1.342563,-0.624243
 C,0,5.535275,-0.024333,2.107887
 H,0,6.335343,-0.702817,2.476052
 H,0,5.577028,0.9011,2.70152
 H,0,4.56561,-0.50178,2.31307
 Recover connectivity data from disk.
                           ----------------------------
                           !    Current Parameters    !
                           ! (Angstroms and Degrees)  !
 --------------------------                            --------------------------
 ! Name  Definition              Value                                          !
 --------------------------------------------------------------------------------
 ! R1    R(1,20)                 1.224                                          !
 ! R2    R(2,3)                  1.4528                                         !
 ! R3    R(2,9)                  1.422                                          !
 ! R4    R(2,18)                 1.4139                                         !
 ! R5    R(3,5)                  1.345                                          !
 ! R6    R(3,10)                 1.406                                          !
 ! R7    R(4,17)                 1.2216                                         !
 ! R8    R(5,6)                  1.0169                                         !
 ! R9    R(5,36)                 1.4441                                         !
 ! R10   R(7,9)                  1.4181                                         !
 ! R11   R(7,20)                 1.4611                                         !
 ! R12   R(7,24)                 1.3897                                         !
 ! R13   R(8,17)                 1.39                                           !
 ! R14   R(8,20)                 1.4013                                         !
 ! R15   R(8,21)                 1.4667                                         !
 ! R16   R(9,12)                 1.4174                                         !
 ! R17   R(10,11)                1.0897                                         !
 ! R18   R(10,24)                1.3922                                         !
 ! R19   R(12,13)                1.3842                                         !
 ! R20   R(12,17)                1.4813                                         !
 ! R21   R(13,14)                1.0915                                         !
 ! R22   R(13,15)                1.403                                          !
 ! R23   R(15,16)                1.0914                                         !
 ! R24   R(15,18)                1.3817                                         !
 ! R25   R(18,19)                1.0918                                         !
 ! R26   R(21,22)                1.0971                                         !
 ! R27   R(21,23)                1.0958                                         !
 ! R28   R(21,26)                1.5265                                         !
 ! R29   R(24,25)                1.0923                                         !
 ! R30   R(26,27)                1.1035                                         !
 ! R31   R(26,28)                1.1028                                         !
 ! R32   R(26,29)                1.5264                                         !
 ! R33   R(29,30)                1.1031                                         !
 ! R34   R(29,31)                1.1039                                         !
 ! R35   R(29,32)                1.5238                                         !
 ! R36   R(32,33)                1.1024                                         !
 ! R37   R(32,34)                1.1023                                         !
 ! R38   R(32,35)                1.1011                                         !
 ! R39   R(36,37)                1.1056                                         !
 ! R40   R(36,38)                1.1018                                         !
 ! R41   R(36,39)                1.525                                          !
 ! R42   R(39,40)                1.1109                                         !
 ! R43   R(39,41)                1.1015                                         !
 ! R44   R(39,42)                1.4536                                         !
 ! R45   R(42,43)                1.4492                                         !
 ! R46   R(42,47)                1.4502                                         !
 ! R47   R(43,44)                1.1007                                         !
 ! R48   R(43,45)                1.1117                                         !
 ! R49   R(43,46)                1.1006                                         !
 ! R50   R(47,48)                1.1118                                         !
 ! R51   R(47,49)                1.1003                                         !
 ! R52   R(47,50)                1.1001                                         !
 ! A1    A(3,2,9)              118.8961                                         !
 ! A2    A(3,2,18)             122.7061                                         !
 ! A3    A(9,2,18)             118.3973                                         !
 ! A4    A(2,3,5)              120.1547                                         !
 ! A5    A(2,3,10)             118.4725                                         !
 ! A6    A(5,3,10)             121.3709                                         !
 ! A7    A(3,5,6)              120.0492                                         !
 ! A8    A(3,5,36)             124.986                                          !
 ! A9    A(6,5,36)             112.6898                                         !
 ! A10   A(9,7,20)             120.8392                                         !
 ! A11   A(9,7,24)             118.8653                                         !
 ! A12   A(20,7,24)            120.2954                                         !
 ! A13   A(17,8,20)            124.6543                                         !
 ! A14   A(17,8,21)            118.2953                                         !
 ! A15   A(20,8,21)            117.0491                                         !
 ! A16   A(2,9,7)              120.8332                                         !
 ! A17   A(2,9,12)             119.4377                                         !
 ! A18   A(7,9,12)             119.7291                                         !
 ! A19   A(3,10,11)            119.8782                                         !
 ! A20   A(3,10,24)            121.0428                                         !
 ! A21   A(11,10,24)           119.0766                                         !
 ! A22   A(9,12,13)            120.5684                                         !
 ! A23   A(9,12,17)            120.2046                                         !
 ! A24   A(13,12,17)           119.227                                          !
 ! A25   A(12,13,14)           119.272                                          !
 ! A26   A(12,13,15)           120.1583                                         !
 ! A27   A(14,13,15)           120.5694                                         !
 ! A28   A(13,15,16)           119.9384                                         !
 ! A29   A(13,15,18)           120.0857                                         !
 ! A30   A(16,15,18)           119.9757                                         !
 ! A31   A(4,17,8)             120.8441                                         !
 ! A32   A(4,17,12)            121.8948                                         !
 ! A33   A(8,17,12)            117.2611                                         !
 ! A34   A(2,18,15)            121.3479                                         !
 ! A35   A(2,18,19)            120.5785                                         !
 ! A36   A(15,18,19)           118.0721                                         !
 ! A37   A(1,20,7)             123.2279                                         !
 ! A38   A(1,20,8)             119.4638                                         !
 ! A39   A(7,20,8)             117.3083                                         !
 ! A40   A(8,21,22)            107.417                                          !
 ! A41   A(8,21,23)            106.9505                                         !
 ! A42   A(8,21,26)            113.5223                                         !
 ! A43   A(22,21,23)           108.2542                                         !
 ! A44   A(22,21,26)           109.9158                                         !
 ! A45   A(23,21,26)           110.583                                          !
 ! A46   A(7,24,10)            121.8823                                         !
 ! A47   A(7,24,25)            118.7946                                         !
 ! A48   A(10,24,25)           119.3217                                         !
 ! A49   A(21,26,27)           107.0337                                         !
 ! A50   A(21,26,28)           109.1109                                         !
 ! A51   A(21,26,29)           114.9536                                         !
 ! A52   A(27,26,28)           106.2302                                         !
 ! A53   A(27,26,29)           109.5184                                         !
 ! A54   A(28,26,29)           109.6144                                         !
 ! A55   A(26,29,30)           109.4456                                         !
 ! A56   A(26,29,31)           109.4353                                         !
 ! A57   A(26,29,32)           112.6611                                         !
 ! A58   A(30,29,31)           106.0855                                         !
 ! A59   A(30,29,32)           109.8464                                         !
 ! A60   A(31,29,32)           109.1525                                         !
 ! A61   A(29,32,33)           111.1849                                         !
 ! A62   A(29,32,34)           111.2676                                         !
 ! A63   A(29,32,35)           111.4375                                         !
 ! A64   A(33,32,34)           107.4669                                         !
 ! A65   A(33,32,35)           107.6463                                         !
 ! A66   A(34,32,35)           107.6434                                         !
 ! A67   A(5,36,37)            110.7516                                         !
 ! A68   A(5,36,38)            110.8289                                         !
 ! A69   A(5,36,39)            108.707                                          !
 ! A70   A(37,36,38)           106.7159                                         !
 ! A71   A(37,36,39)           111.2365                                         !
 ! A72   A(38,36,39)           108.5803                                         !
 ! A73   A(36,39,40)           108.5493                                         !
 ! A74   A(36,39,41)           108.5311                                         !
 ! A75   A(36,39,42)           112.4794                                         !
 ! A76   A(40,39,41)           107.0177                                         !
 ! A77   A(40,39,42)           112.4159                                         !
 ! A78   A(41,39,42)           107.6354                                         !
 ! A79   A(39,42,43)           111.7791                                         !
 ! A80   A(39,42,47)           112.9296                                         !
 ! A81   A(43,42,47)           111.5982                                         !
 ! A82   A(42,43,44)           110.0806                                         !
 ! A83   A(42,43,45)           112.8121                                         !
 ! A84   A(42,43,46)           110.2734                                         !
 ! A85   A(44,43,45)           107.714                                          !
 ! A86   A(44,43,46)           107.9494                                         !
 ! A87   A(45,43,46)           107.8491                                         !
 ! A88   A(42,47,48)           112.6495                                         !
 ! A89   A(42,47,49)           109.8315                                         !
 ! A90   A(42,47,50)           111.0176                                         !
 ! A91   A(48,47,49)           107.8984                                         !
 ! A92   A(48,47,50)           107.9194                                         !
 ! A93   A(49,47,50)           107.3285                                         !
 ! D1    D(9,2,3,5)           -179.4962                                         !
 ! D2    D(9,2,3,10)             1.004                                          !
 ! D3    D(18,2,3,5)             0.7768                                         !
 ! D4    D(18,2,3,10)         -178.723                                          !
 ! D5    D(3,2,9,7)             -0.554                                          !
 ! D6    D(3,2,9,12)           179.488                                          !
 ! D7    D(18,2,9,7)           179.1849                                         !
 ! D8    D(18,2,9,12)           -0.7731                                         !
 ! D9    D(3,2,18,15)         -179.6169                                         !
 ! D10   D(3,2,18,19)            0.8464                                         !
 ! D11   D(9,2,18,15)            0.6548                                         !
 ! D12   D(9,2,18,19)         -178.8819                                         !
 ! D13   D(2,3,5,6)             13.0243                                         !
 ! D14   D(2,3,5,36)           174.608                                          !
 ! D15   D(10,3,5,6)          -167.4907                                         !
 ! D16   D(10,3,5,36)           -5.907                                          !
 ! D17   D(2,3,10,11)          179.857                                          !
 ! D18   D(2,3,10,24)           -0.7123                                         !
 ! D19   D(5,3,10,11)            0.3636                                         !
 ! D20   D(5,3,10,24)          179.7943                                         !
 ! D21   D(3,5,36,37)          -59.8963                                         !
 ! D22   D(3,5,36,38)           58.3483                                         !
 ! D23   D(3,5,36,39)          177.6069                                         !
 ! D24   D(6,5,36,37)          102.8623                                         !
 ! D25   D(6,5,36,38)         -138.8931                                         !
 ! D26   D(6,5,36,39)          -19.6345                                         !
 ! D27   D(20,7,9,2)           179.7514                                         !
 ! D28   D(20,7,9,12)           -0.2907                                         !
 ! D29   D(24,7,9,2)            -0.2108                                         !
 ! D30   D(24,7,9,12)          179.7471                                         !
 ! D31   D(9,7,20,1)           179.7989                                         !
 ! D32   D(9,7,20,8)            -0.2297                                         !
 ! D33   D(24,7,20,1)           -0.2395                                         !
 ! D34   D(24,7,20,8)          179.732                                          !
 ! D35   D(9,7,24,10)            0.5348                                         !
 ! D36   D(9,7,24,25)         -179.9028                                         !
 ! D37   D(20,7,24,10)        -179.4275                                         !
 ! D38   D(20,7,24,25)           0.1348                                         !
 ! D39   D(20,8,17,4)          179.5342                                         !
 ! D40   D(20,8,17,12)          -0.4587                                         !
 ! D41   D(21,8,17,4)           -0.8885                                         !
 ! D42   D(21,8,17,12)         179.1187                                         !
 ! D43   D(17,8,20,1)         -179.4051                                         !
 ! D44   D(17,8,20,7)            0.6223                                         !
 ! D45   D(21,8,20,1)            1.0127                                         !
 ! D46   D(21,8,20,7)         -178.9598                                         !
 ! D47   D(17,8,21,22)         138.9924                                         !
 ! D48   D(17,8,21,23)          22.9645                                         !
 ! D49   D(17,8,21,26)         -99.2781                                         !
 ! D50   D(20,8,21,22)         -41.398                                          !
 ! D51   D(20,8,21,23)        -157.4258                                         !
 ! D52   D(20,8,21,26)          80.3316                                         !
 ! D53   D(2,9,12,13)            0.3513                                         !
 ! D54   D(2,9,12,17)         -179.5833                                         !
 ! D55   D(7,9,12,13)         -179.6072                                         !
 ! D56   D(7,9,12,17)            0.4583                                         !
 ! D57   D(3,10,24,7)           -0.0626                                         !
 ! D58   D(3,10,24,25)        -179.6227                                         !
 ! D59   D(11,10,24,7)         179.3725                                         !
 ! D60   D(11,10,24,25)         -0.1876                                         !
 ! D61   D(9,12,13,14)        -179.9887                                         !
 ! D62   D(9,12,13,15)           0.2169                                         !
 ! D63   D(17,12,13,14)         -0.0536                                         !
 ! D64   D(17,12,13,15)       -179.8479                                         !
 ! D65   D(9,12,17,4)          179.9045                                         !
 ! D66   D(9,12,17,8)           -0.1028                                         !
 ! D67   D(13,12,17,4)          -0.0309                                         !
 ! D68   D(13,12,17,8)         179.9618                                         !
 ! D69   D(12,13,15,16)        179.5164                                         !
 ! D70   D(12,13,15,18)         -0.349                                          !
 ! D71   D(14,13,15,16)         -0.2752                                         !
 ! D72   D(14,13,15,18)        179.8594                                         !
 ! D73   D(13,15,18,2)          -0.0963                                         !
 ! D74   D(13,15,18,19)        179.4516                                         !
 ! D75   D(16,15,18,2)        -179.9617                                         !
 ! D76   D(16,15,18,19)         -0.4138                                         !
 ! D77   D(8,21,26,27)        -178.2102                                         !
 ! D78   D(8,21,26,28)         -63.6578                                         !
 ! D79   D(8,21,26,29)          59.9207                                         !
 ! D80   D(22,21,26,27)        -57.8842                                         !
 ! D81   D(22,21,26,28)         56.6683                                         !
 ! D82   D(22,21,26,29)       -179.7532                                         !
 ! D83   D(23,21,26,27)         61.5837                                         !
 ! D84   D(23,21,26,28)        176.1362                                         !
 ! D85   D(23,21,26,29)        -60.2854                                         !
 ! D86   D(21,26,29,30)         56.2093                                         !
 ! D87   D(21,26,29,31)        -59.6498                                         !
 ! D88   D(21,26,29,32)        178.7269                                         !
 ! D89   D(27,26,29,30)        -64.3042                                         !
 ! D90   D(27,26,29,31)        179.8367                                         !
 ! D91   D(27,26,29,32)         58.2134                                         !
 ! D92   D(28,26,29,30)        179.5199                                         !
 ! D93   D(28,26,29,31)         63.6608                                         !
 ! D94   D(28,26,29,32)        -57.9625                                         !
 ! D95   D(26,29,32,33)         59.4266                                         !
 ! D96   D(26,29,32,34)        -60.3282                                         !
 ! D97   D(26,29,32,35)        179.5229                                         !
 ! D98   D(30,29,32,33)       -178.2812                                         !
 ! D99   D(30,29,32,34)         61.964                                          !
 ! D100  D(30,29,32,35)        -58.1849                                         !
 ! D101  D(31,29,32,33)        -62.3569                                         !
 ! D102  D(31,29,32,34)        177.8883                                         !
 ! D103  D(31,29,32,35)         57.7394                                         !
 ! D104  D(5,36,39,40)         172.1102                                         !
 ! D105  D(5,36,39,41)         -71.9095                                         !
 ! D106  D(5,36,39,42)          47.0703                                         !
 ! D107  D(37,36,39,40)         49.9072                                         !
 ! D108  D(37,36,39,41)        165.8874                                         !
 ! D109  D(37,36,39,42)        -75.1327                                         !
 ! D110  D(38,36,39,40)        -67.2338                                         !
 ! D111  D(38,36,39,41)         48.7464                                         !
 ! D112  D(38,36,39,42)        167.7263                                         !
 ! D113  D(36,39,42,43)       -165.6657                                         !
 ! D114  D(36,39,42,47)         67.5062                                         !
 ! D115  D(40,39,42,43)         71.439                                          !
 ! D116  D(40,39,42,47)        -55.3891                                         !
 ! D117  D(41,39,42,43)        -46.1633                                         !
 ! D118  D(41,39,42,47)       -172.9914                                         !
 ! D119  D(39,42,43,44)        175.4146                                         !
 ! D120  D(39,42,43,45)        -64.2403                                         !
 ! D121  D(39,42,43,46)         56.4134                                         !
 ! D122  D(47,42,43,44)        -57.0389                                         !
 ! D123  D(47,42,43,45)         63.3062                                         !
 ! D124  D(47,42,43,46)       -176.0401                                         !
 ! D125  D(39,42,47,48)         61.3371                                         !
 ! D126  D(39,42,47,49)       -178.3651                                         !
 ! D127  D(39,42,47,50)        -59.826                                          !
 ! D128  D(43,42,47,48)        -65.5869                                         !
 ! D129  D(43,42,47,49)         54.7109                                         !
 ! D130  D(43,42,47,50)        173.25                                           !
 --------------------------------------------------------------------------------
                          Input orientation:                          
 ---------------------------------------------------------------------
 Center     Atomic      Atomic             Coordinates (Angstroms)
 Number     Number       Type             X           Y           Z
 ---------------------------------------------------------------------
      1          8           0       -2.852622   -2.431643   -0.737025
      2          6           0        0.992723    0.483981   -0.490679
      3          6           0        1.892205   -0.655028   -0.426022
      4          8           0       -3.551387    2.056129   -0.758698
      5          7           0        3.220124   -0.462830   -0.332286
      6          1           0        3.586684    0.458916   -0.108336
      7          6           0       -0.922400   -1.070699   -0.614727
      8          7           0       -3.199379   -0.189146   -0.737929
      9          6           0       -0.407138    0.249958   -0.578491
     10          6           0        1.341394   -1.947683   -0.474608
     11          1           0        1.995167   -2.818360   -0.430172
     12          6           0       -1.295824    1.352844   -0.631176
     13          6           0       -0.811267    2.649243   -0.605128
     14          1           0       -1.514673    3.482857   -0.646586
     15          6           0        0.569939    2.884112   -0.530596
     16          1           0        0.948508    3.907697   -0.518240
     17          6           0       -2.757709    1.128643   -0.713500
     18          6           0        1.451266    1.821395   -0.475646
     19          1           0        2.519523    2.041793   -0.427472
     20          6           0       -2.361038   -1.311328   -0.699518
     21          6           0       -4.643659   -0.437323   -0.799356
     22          1           0       -4.804674   -1.268299   -1.497320
     23          1           0       -5.104535    0.461690   -1.223845
     24          6           0       -0.034552   -2.138773   -0.567376
     25          1           0       -0.432615   -3.155573   -0.596981
     26          6           0       -5.263004   -0.769089    0.555855
     27          1           0       -6.334701   -0.966212    0.381924
     28          1           0       -4.832345   -1.713562    0.928136
     29          6           0       -5.109955    0.317308    1.617142
     30          1           0       -5.533805    1.262806    1.238603
     31          1           0       -4.037460    0.511318    1.792163
     32          6           0       -5.772744   -0.054623    2.937837
     33          1           0       -5.343437   -0.981741    3.351821
     34          1           0       -6.855083   -0.219685    2.809512
     35          1           0       -5.643038    0.738435    3.690576
     36          6           0        4.197577   -1.510218   -0.150743
     37          1           0        4.008698   -2.063976    0.787307
     38          1           0        4.140851   -2.245253   -0.969579
     39          6           0        5.589168   -0.886365   -0.153301
     40          1           0        6.327161   -1.667485    0.128448
     41          1           0        5.829688   -0.571336   -1.180990
     42          7           0        5.673113    0.288559    0.698520
     43          6           0        6.873671    1.057145    0.437661
     44          1           0        6.869135    1.980259    1.037144
     45          1           0        7.803937    0.499677    0.682055
     46          1           0        6.920546    1.342563   -0.624243
     47          6           0        5.535275   -0.024333    2.107887
     48          1           0        6.335343   -0.702817    2.476052
     49          1           0        5.577028    0.901100    2.701520
     50          1           0        4.565610   -0.501780    2.313070
 ---------------------------------------------------------------------
                    Distance matrix (angstroms):
                    1          2          3          4          5
     1  O    0.000000
     2  C    4.832000   0.000000
     3  C    5.076068   1.452787   0.000000
     4  O    4.541898   4.815851   6.090463   0.000000
     5  N    6.396740   2.425460   1.345026   7.237427   0.000000
     6  H    7.086271   2.622108   2.052573   7.343440   1.016925
     7  C    2.364928   2.469841   2.851384   4.087708   4.196401
     8  N    2.269148   4.252993   5.122359   2.272796   6.438126
     9  C    3.632700   1.422002   2.475727   3.630569   3.704823
    10  C    4.229994   2.456587   1.405955   6.328548   2.398889
    11  H    4.872860   3.451668   2.165785   7.391403   2.656807
    12  C    4.093552   2.451960   3.773217   2.366101   4.876453
    13  C    5.477219   2.820610   4.273061   2.807779   5.100152
    14  H    6.064618   3.912109   5.364472   2.489242   6.171348
    15  C    6.325645   2.437410   3.779528   4.209859   4.273737
    16  H    7.394842   3.424112   4.660207   4.871876   4.929130
    17  C    3.561629   3.811952   4.988570   1.221556   6.197790
    18  C    6.056410   1.413918   2.515862   5.016149   2.892593
    19  H    6.997671   2.182176   2.768822   6.079956   2.602506
    20  C    1.223996   3.809785   4.312262   3.572142   5.657223
    21  C    2.681233   5.719518   6.550137   2.722501   7.877683
    22  H    2.396231   6.139513   6.809697   3.628789   8.148832
    23  H    3.698578   6.141220   7.130074   2.273954   8.423156
    24  C    2.838322   2.817803   2.435954   5.477402   3.668374
    25  H    2.529846   3.910146   3.418587   6.075749   4.545705
    26  C    3.200870   6.465256   7.223165   3.555213   8.534990
    27  H    3.940103   7.520348   8.272339   4.264083   9.594695
    28  H    2.684717   6.385425   6.940736   4.323983   8.245923
    29  C    4.265488   6.458589   7.358682   3.331253   8.590640
    30  H    4.974013   6.796510   7.848228   2.923791   9.059624
    31  H    4.057296   5.524025   6.437518   3.021523   7.624616
    32  C    5.261364   7.603707   8.392108   4.801466   9.577683
    33  H    5.002503   7.553812   8.169049   5.416315   9.336835
    34  H    5.787087   8.542509   9.336662   5.368972  10.556506
    35  H    6.118780   7.847354   8.698736   5.089927   9.807247
    36  C    7.134287   3.789918   2.474241   8.551894   1.444089
    37  H    7.038216   4.149872   2.817241   8.747587   2.106895
    38  H    6.999821   4.193897   2.807255   8.815718   2.104973
    39  C    8.601886   4.808220   3.714220   9.621565   2.413252
    40  H    9.252102   5.785184   4.582722  10.594246   3.364097
    41  H    8.890464   4.998645   4.010081   9.751229   2.746251
    42  N    9.063578   4.833056   4.055887   9.504693   2.764833
    43  C   10.399630   5.981294   5.337836  10.540924   4.031321
    44  H   10.822436   6.253424   5.818541  10.574407   4.599924
    45  H   11.143100   6.911453   6.124521  11.551697   4.792353
    46  H   10.477221   5.991167   5.414229  10.497077   4.127688
    47  C    9.178534   5.257919   4.482235   9.752592   3.392145
    48  H    9.885919   6.225237   5.307145  10.762101   4.201065
    49  H    9.694832   5.601783   5.077497   9.830318   4.076675
    50  H    8.249704   4.647392   3.830562   9.047889   2.968124
                    6          7          8          9         10
     6  H    0.000000
     7  C    4.788318   0.000000
     8  N    6.845949   2.444780   0.000000
     9  C    4.026825   1.418077   2.831050   0.000000
    10  C    3.311676   2.431768   4.876516   2.810299   0.000000
    11  H    3.657464   3.405962   5.830162   3.899698   1.089712
    12  C    4.991127   2.452198   2.452071   1.417355   4.227637
    13  C    4.938249   3.721614   3.711761   2.433228   5.077668
    14  H    5.954643   4.592023   4.041062   3.418027   6.138197
    15  C    3.893665   4.227846   4.867819   2.809936   4.893314
    16  H    4.361431   5.319214   5.834154   3.901341   5.868708
    17  C    6.408282   2.866221   1.390049   2.513066   5.130643
    18  C    2.559546   3.744041   5.073418   2.435910   3.770679
    19  H    1.935505   4.644298   6.146488   3.434942   4.160064
    20  C    6.233671   1.461086   1.401279   2.503994   3.763447
    21  C    8.307785   3.779289   1.466734   4.297586   6.181222
    22  H    8.679138   3.986235   2.078032   4.742117   6.267508
    23  H    8.762514   4.495497   2.071068   4.746246   6.922170
    24  C    4.480185   1.389712   3.721057   2.417639   1.392246
    25  H    5.427529   2.141706   4.058884   3.405676   2.149670
    26  C    8.959136   4.505782   2.503749   5.089659   6.787416
    27  H   10.035199   5.504292   3.418793   6.126783   7.785844
    28  H    8.756368   4.252219   2.786789   5.070285   6.335421
    29  C    8.867291   4.944029   3.074598   5.190552   7.150210
    30  H    9.254394   5.490458   3.385910   5.532667   7.778862
    31  H    7.857621   4.242581   2.755793   4.343679   6.333799
    32  C    9.856053   6.097455   4.489049   6.422387   8.114149
    33  H    9.684794   5.940285   4.685216   6.428957   7.762832
    34  H   10.863003   6.902635   5.094059   7.298981   8.997425
    35  H    9.984870   6.640258   5.142328   6.773344   8.564244
    36  C    2.062154   5.159711   7.536908   4.948190   2.907584
    37  H    2.710213   5.221880   7.602480   5.169072   2.953043
    38  H    2.891603   5.209799   7.626284   5.202233   2.858409
    39  C    2.412829   6.530499   8.835523   6.117818   4.390127
    40  H    3.476760   7.311949   9.679414   7.037552   5.029917
    41  H    2.691296   6.794167   9.048007   6.319456   4.747430
    42  N    2.243485   6.860976   9.000706   6.213027   5.014060
    43  C    3.385303   8.149476  10.217710   7.395559   6.361393
    44  H    3.794877   8.529070  10.451420   7.651690   6.947665
    45  H    4.290874   8.960842  11.115925   8.311022   7.006561
    46  H    3.487353   8.205835  10.235816   7.408835   6.478815
    47  C    2.990348   7.085836   9.188036   6.527184   5.287456
    48  H    3.947634   7.897030  10.074942   7.463180   5.932589
    49  H    3.471640   7.558310   9.489139   6.855122   6.011984
    50  H    2.782883   6.246112   8.348736   5.801246   4.500817
                   11         12         13         14         15
    11  H    0.000000
    12  C    5.316951   0.000000
    13  C    6.148281   1.384241   0.000000
    14  H    7.216034   2.141282   1.091518   0.000000
    15  C    5.878737   2.415775   1.403014   2.171994   0.000000
    16  H    6.807576   3.402507   2.165194   2.502843   1.091418
    17  C    6.184573   1.481267   2.472368   2.663070   3.766745
    18  C    4.671747   2.791099   2.412707   3.403891   1.381711
    19  H    4.888358   3.882399   3.390386   4.289454   2.126268
    20  C    4.617382   2.870046   4.254036   4.868608   5.120633
    21  C    7.062552   3.800129   4.924616   5.018137   6.187549
    22  H    7.055447   4.464597   5.664843   5.841347   6.860287
    23  H    7.860942   3.956222   4.858019   4.727345   6.208734
    24  C    2.144860   3.712986   4.850753   5.813756   5.059262
    25  H    2.456759   4.590438   5.817158   6.726222   6.122689
    26  C    7.606103   4.652973   5.731565   5.794385   6.967746
    27  H    8.571852   5.638677   6.674886   6.639632   7.958124
    28  H    7.048439   4.933688   6.128135   6.363133   7.242319
    29  C    8.031604   4.546962   5.371697   5.298228   6.592606
    30  H    8.725030   4.632997   5.255846   4.963465   6.558536
    31  H    7.240036   3.754638   4.552587   4.598043   5.679215
    32  C    8.906299   5.895899   6.669314   6.594924   7.803577
    33  H    8.457644   6.139847   7.027237   7.111914   8.061389
    34  H    9.776277   6.724325   7.511207   7.360259   8.713256
    35  H    9.379421   6.160626   6.741682   6.586822   7.811742
    36  C    2.576805   6.213324   6.526569   7.603056   5.710883
    37  H    2.470963   6.467202   6.883703   7.958080   6.168104
    38  H    2.285470   6.528266   6.972258   8.056086   6.265341
    39  C    4.089756   7.255724   7.325998   8.354519   6.288999
    40  H    4.516939   8.234641   8.374332   9.413876   7.368648
    41  H    4.507371   7.401195   7.403109   8.406052   6.326776
    42  N    4.945117   7.174042   7.022785   7.979794   5.855767
    43  C    6.290666   8.244422   7.917099   8.799090   6.634182
    44  H    6.995379   8.357242   7.882460   8.682222   6.553978
    45  H    6.781462   9.233532   8.972135   9.874267   7.712767
    46  H    6.450605   8.216379   7.841474   8.702544   6.535698
    47  C    5.175007   7.487523   7.401828   8.342018   6.330498
    48  H    5.635494   8.492074   8.473725   9.428334   7.426027
    49  H    6.039173   7.651603   7.402718   8.256362   6.280912
    50  H    4.415778   6.816496   6.881543   7.848996   5.959538
                   16         17         18         19         20
    16  H    0.000000
    17  C    4.636519   0.000000
    18  C    2.146447   4.272230   0.000000
    19  H    2.440886   5.363286   1.091819   0.000000
    20  C    6.182571   2.472044   4.939406   5.927673   0.000000
    21  C    7.087352   2.452841   6.508049   7.589169   2.446265
    22  H    7.800554   3.248041   7.051724   8.108338   2.570933
    23  H    7.000869   2.492563   6.736997   7.826698   3.308366
    24  C    6.126061   4.255930   4.230721   4.901021   2.472785
    25  H    7.197464   4.875874   5.322963   5.979671   2.670312
    26  C    7.849133   3.389565   7.270215   8.332810   3.208020
    27  H    8.809677   4.287568   8.314293   9.386187   4.132629
    28  H    8.191997   3.882939   7.345086   8.366022   2.986370
    29  C    7.359057   3.409284   7.049231   8.084753   3.946633
    30  H    7.218194   3.396383   7.214006   8.260673   4.522049
    31  H    6.460126   2.880486   6.081560   7.089652   3.512962
    32  C    8.533445   4.880862   8.207169   9.191407   5.142898
    33  H    8.858473   5.259900   8.287042   9.233144   5.041496
    34  H    9.434259   5.569387   9.162625  10.172295   5.805292
    35  H    8.438414   5.279514   8.298154   9.234959   5.852006
    36  C    6.328136   7.460314   4.329830   3.938176   6.584538
    37  H    6.835941   7.630826   4.819919   4.533285   6.584122
    38  H    6.946478   7.683676   4.900557   4.615338   6.574170
    39  C    6.682210   8.604908   4.955613   4.251117   7.980271
    40  H    7.773723   9.542645   6.025908   5.344707   8.734826
    41  H    6.657844   8.766519   5.039172   4.284090   8.238167
    42  N    6.074583   8.589430   4.642439   3.779791   8.310339
    43  C    6.644317   9.700194   5.551638   4.547152   9.601182
    44  H    6.417793   9.821717   5.627351   4.589990   9.952218
    45  H    7.749336  10.671998   6.591179   5.615532  10.417063
    46  H    6.500491   9.681030   5.492211   4.460566   9.653839
    47  C    6.587551   8.835336   5.173054   4.448784   8.478776
    48  H    7.696793   9.808725   6.240062   5.524836   9.278016
    49  H    6.389810   9.010104   5.288028   4.521074   8.914863
    50  H    6.367357   8.090081   4.782595   4.262254   7.596677
                   21         22         23         24         25
    21  C    0.000000
    22  H    1.097087   0.000000
    23  H    1.095820   1.776954   0.000000
    24  C    4.918599   4.937265   5.735685   0.000000
    25  H    5.016247   4.846371   5.941749   1.092343   0.000000
    26  C    1.526517   2.162130   2.169622   5.520362   5.509718
    27  H    2.129500   2.442089   2.476026   6.478267   6.370728
    28  H    2.156065   2.466143   3.071943   5.043429   4.874731
    29  C    2.574172   3.508165   2.844659   6.046831   6.232235
    30  H    2.799299   3.797815   2.624826   6.713724   6.993824
    31  H    2.825485   3.817899   3.199596   5.349176   5.670009
    32  C    3.922742   4.699020   4.246490   7.039677   7.115322
    33  H    4.244803   4.887387   4.803882   6.699484   6.665940
    34  H    4.238123   4.883909   4.449344   7.848944   7.840391
    35  H    4.747700   5.625309   4.951576   7.606812   7.790696
    36  C    8.929684   9.105620   9.569183   4.298788   4.934065
    37  H    8.945769   9.139374   9.668233   4.264813   4.778399
    38  H    8.970240   9.014176   9.636875   4.196081   4.678045
    39  C   10.263029  10.487336  10.831371   5.776349   6.450428
    40  H   11.078493  11.257008  11.706654   6.416983   6.959542
    41  H   10.481155  10.661870  10.982996   6.101040   6.799690
    42  N   10.450183  10.818019  10.949117   6.330235   7.128835
    43  C   11.679578  12.063813  12.107543   7.677730   8.497017
    44  H   11.906379  12.379598  12.279532   8.197671   9.075389
    45  H   12.570409  12.917139  13.048469   8.364473   9.101515
    46  H   11.701688  12.044071  12.072201   7.777938   8.619916
    47  C   10.594023  11.020867  11.159848   6.530763   7.262003
    48  H   11.460247  11.840922  12.079575   7.204164   7.827183
    49  H   10.886228  11.406853  11.388475   7.170519   7.965709
    50  H    9.721213  10.144400  10.341651   5.669057   6.363432
                   26         27         28         29         30
    26  C    0.000000
    27  H    1.103469   0.000000
    28  H    1.102765   1.764640   0.000000
    29  C    1.526438   2.161756   2.162459   0.000000
    30  H    2.160573   2.518701   3.073630   1.103135   0.000000
    31  H    2.160985   3.073953   2.515646   1.103865   1.763579
    32  C    2.538530   2.771188   2.770438   1.523764   2.163356
    33  H    2.805195   3.130996   2.582833   2.179714   3.088676
    34  H    2.813455   2.592544   3.140496   2.180729   2.532057
    35  H    3.499076   3.785683   3.781612   2.181892   2.509794
    36  C    9.515837  10.559761   9.096418   9.648597  10.213704
    37  H    9.364548  10.409386   8.849105   9.460918  10.115854
    38  H    9.640461  10.639535   9.187070   9.941592  10.525280
    39  C   10.875950  11.936142  10.510076  10.911211  11.413889
    40  H   11.632786  12.683800  11.188217  11.703129  12.267908
    41  H   11.229584  12.270737  10.928497  11.326739  11.762121
    42  N   10.988068  12.077346  10.697002  10.822165  11.262143
    43  C   12.273874  13.362566  12.039443  12.064237  12.435002
    44  H   12.449070  13.544456  12.271138  12.107865  12.425307
    45  H   13.129000  14.217595  12.831002  12.948987  13.371143
    46  H   12.421377  13.492383  12.242558  12.280387  12.593150
    47  C   10.934637  12.031725  10.570376  10.662011  11.177518
    48  H   11.756411  12.844640  11.319669  11.522727  12.094281
    49  H   11.175854  12.278301  10.878253  10.757709  11.212563
    50  H    9.988038  11.079793   9.576430   9.735080  10.308561
                   31         32         33         34         35
    31  H    0.000000
    32  C    2.155010   0.000000
    33  H    2.523358   1.102377   0.000000
    34  H    3.083563   1.102348   1.777611   0.000000
    35  H    2.496685   1.101082   1.778629   1.778573   0.000000
    36  C    8.699272  10.538756  10.177337  11.514768  10.800457
    37  H    8.507793  10.214641   9.757581  11.203234  10.461285
    38  H    9.061494  10.878701  10.498699  11.802331  11.240281
    39  C    9.920197  11.804235  11.481151  12.809454  11.982396
    40  H   10.721031  12.526041  12.126963  13.529811  12.718603
    41  H   10.362065  12.322668  12.064557  13.302300  12.532801
    42  N    9.774503  11.667903  11.402545  12.714963  11.713670
    43  C   11.008423  12.939039  12.724273  13.990520  12.936423
    44  H   11.030941  12.944902  12.778031  14.011966  12.850576
    45  H   11.893324  13.773963  13.497248  14.830051  13.781485
    46  H   11.252017  13.257457  13.100258  14.282830  13.297604
    47  C    9.592907  11.338476  10.991377  12.411745  11.315538
    48  H   10.465986  12.134215  11.714891  13.203483  12.125753
    49  H    9.665259  11.392391  11.100655  12.482997  11.264749
    50  H    8.678164  10.366863   9.974897  11.434958  10.375555
                   36         37         38         39         40
    36  C    0.000000
    37  H    1.105559   0.000000
    38  H    1.101811   1.771151   0.000000
    39  C    1.525033   2.183895   2.147209   0.000000
    40  H    2.153557   2.442657   2.513848   1.110930   0.000000
    41  H    2.146321   3.068904   2.387229   1.101471   1.778665
    42  N    2.476702   2.883155   3.398615   1.453648   2.139829
    43  C    3.754870   4.251084   4.511592   2.403417   2.796050
    44  H    4.553211   4.959875   5.415295   3.357530   3.798092
    45  H    4.211777   4.581183   4.866286   2.743015   2.680287
    46  H    3.972043   4.698493   4.551745   2.638650   3.158962
    47  C    3.016405   2.869584   4.043229   2.420532   2.691693
    48  H    3.481665   3.180863   4.366609   2.739336   2.538089
    49  H    3.981550   3.862065   5.043720   3.368261   3.712281
    50  H    2.687521   2.253566   3.741110   2.697881   3.038833
                   41         42         43         44         45
    41  H    0.000000
    42  N    2.072798   0.000000
    43  C    2.522277   1.449176   0.000000
    44  H    3.537118   2.099282   1.100700   0.000000
    45  H    2.918161   2.141320   1.111708   1.786635   0.000000
    46  H    2.272212   2.101598   1.100591   1.780311   1.788086
    47  C    3.347029   1.450247   2.398031   2.635159   2.730277
    48  H    3.694175   2.140326   2.746325   3.091001   2.611740
    49  H    4.160023   2.096771   2.613559   2.367334   3.032903
    50  H    3.716340   2.111391   3.357760   3.618664   3.761634
                   46         47         48         49         50
    46  H    0.000000
    47  C    3.354387   0.000000
    48  H    3.760036   1.111753   0.000000
    49  H    3.613949   1.100259   1.788415   0.000000
    50  H    4.192271   1.100139   1.788556   1.772550   0.000000
 Stoichiometry    C20H25N3O2
 Framework group  C1[X(C20H25N3O2)]
 Deg. of freedom   144
 Full point group                 C1      NOp   1
 Largest Abelian subgroup         C1      NOp   1
 Largest concise Abelian subgroup C1      NOp   1
                         Standard orientation:                         
 ---------------------------------------------------------------------
 Center     Atomic      Atomic             Coordinates (Angstroms)
 Number     Number       Type             X           Y           Z
 ---------------------------------------------------------------------
      1          8           0       -2.852622   -2.431643   -0.737025
      2          6           0        0.992723    0.483981   -0.490679
      3          6           0        1.892205   -0.655028   -0.426022
      4          8           0       -3.551387    2.056129   -0.758698
      5          7           0        3.220124   -0.462830   -0.332286
      6          1           0        3.586684    0.458916   -0.108336
      7          6           0       -0.922400   -1.070699   -0.614727
      8          7           0       -3.199379   -0.189146   -0.737929
      9          6           0       -0.407138    0.249958   -0.578491
     10          6           0        1.341394   -1.947683   -0.474608
     11          1           0        1.995167   -2.818360   -0.430172
     12          6           0       -1.295824    1.352844   -0.631176
     13          6           0       -0.811267    2.649243   -0.605128
     14          1           0       -1.514673    3.482857   -0.646586
     15          6           0        0.569939    2.884112   -0.530596
     16          1           0        0.948508    3.907697   -0.518240
     17          6           0       -2.757709    1.128643   -0.713500
     18          6           0        1.451266    1.821395   -0.475646
     19          1           0        2.519523    2.041793   -0.427472
     20          6           0       -2.361038   -1.311328   -0.699518
     21          6           0       -4.643659   -0.437323   -0.799356
     22          1           0       -4.804674   -1.268299   -1.497320
     23          1           0       -5.104535    0.461690   -1.223845
     24          6           0       -0.034552   -2.138773   -0.567376
     25          1           0       -0.432615   -3.155573   -0.596981
     26          6           0       -5.263004   -0.769089    0.555855
     27          1           0       -6.334701   -0.966212    0.381924
     28          1           0       -4.832345   -1.713562    0.928136
     29          6           0       -5.109955    0.317308    1.617142
     30          1           0       -5.533805    1.262806    1.238603
     31          1           0       -4.037460    0.511318    1.792163
     32          6           0       -5.772744   -0.054623    2.937837
     33          1           0       -5.343437   -0.981741    3.351821
     34          1           0       -6.855083   -0.219685    2.809512
     35          1           0       -5.643038    0.738435    3.690576
     36          6           0        4.197577   -1.510218   -0.150743
     37          1           0        4.008698   -2.063976    0.787307
     38          1           0        4.140851   -2.245253   -0.969579
     39          6           0        5.589168   -0.886365   -0.153301
     40          1           0        6.327161   -1.667485    0.128448
     41          1           0        5.829688   -0.571336   -1.180990
     42          7           0        5.673113    0.288559    0.698520
     43          6           0        6.873671    1.057145    0.437661
     44          1           0        6.869135    1.980259    1.037144
     45          1           0        7.803937    0.499677    0.682055
     46          1           0        6.920546    1.342563   -0.624243
     47          6           0        5.535275   -0.024333    2.107887
     48          1           0        6.335343   -0.702817    2.476052
     49          1           0        5.577028    0.901100    2.701520
     50          1           0        4.565610   -0.501780    2.313070
 ---------------------------------------------------------------------
 Rotational constants (GHZ):           0.4756585           0.0971058           0.0908098
 Standard basis: def2SVP (5D, 7F)
 There are   500 symmetry adapted cartesian basis functions of A   symmetry.
 There are   475 symmetry adapted basis functions of A   symmetry.
   475 basis functions,   800 primitive gaussians,   500 cartesian basis functions
    91 alpha electrons       91 beta electrons
       nuclear repulsion energy      2158.6298262330 Hartrees.
 NAtoms=   50 NActive=   50 NUniq=   50 SFac= 1.00D+00 NAtFMM=   60 NAOKFM=F Big=F
 Integral buffers will be    131072 words long.
 Raffenetti 1 integral format.
 Two-electron integral symmetry is turned on.
 Nuclear repulsion after empirical dispersion term =     2158.5901546940 Hartrees.
 ------------------------------------------------------------------------------
 Polarizable Continuum Model (PCM)
 =================================
 Model                : PCM.
 Atomic radii         : SMD-Coulomb.
 Polarization charges : Total charges.
 Charge compensation  : None.
 Solution method      : On-the-fly selection.
 Cavity type          : VdW (van der Waals Surface) (Alpha=1.000).
 Cavity algorithm     : GePol (No added spheres)
                        Default sphere list used, NSphG=   50.
                        Lebedev-Laikov grids with approx.  5.0 points / Ang**2.
                        Smoothing algorithm: York/Karplus (Gamma=1.0000).
                        Polarization charges: spherical gaussians, with
                                              point-specific exponents (IZeta= 3).
                        Self-potential: point-specific (ISelfS= 7).
                        Self-field    : sphere-specific E.n sum rule (ISelfD= 2).
 1st derivatives      : Analytical E(r).r(x)/FMM algorithm (CHGder, D1EAlg=3).
                        Cavity 1st derivative terms included.
 Solvent              : Ethanol, Eps=  24.852000 Eps(inf)=   1.852593
 ------------------------------------------------------------------------------
 ------------------------------------------------------------------------------
 Atomic radii for non-electrostatic terms: SMD-CDS.
 ------------------------------------------------------------------------------
 Nuclear repulsion after PCM non-electrostatic terms =     2158.5870851350 Hartrees.
 One-electron integrals computed using PRISM.
   1 Symmetry operations used in ECPInt.
 ECPInt:  NShTT=   25425 NPrTT=   90925 LenC2=   20852 LenP2D=   50402.
 LDataN:  DoStor=T MaxTD1= 4 Len=   56
 NBasis=   475 RedAO= T EigKep=  2.09D-04  NBF=   475
 NBsUse=   475 1.00D-06 EigRej= -1.00D+00 NBFU=   475
 Initial guess from the checkpoint file:  "0302_wB97XD_EtOH.chk"
 B after Tr=     0.000000    0.000000   -0.000000
         Rot=    1.000000   -0.000000   -0.000000   -0.000000 Ang=   0.00 deg.
 Requested convergence on RMS density matrix=1.00D-08 within 128 cycles.
 Requested convergence on MAX density matrix=1.00D-06.
 Requested convergence on             energy=1.00D-06.
 No special actions if energy rises.
 Inv3:  Mode=1 IEnd=    36498432.
 Iteration    1 A*A^-1 deviation from unit magnitude is 6.66D-15 for   3457.
 Iteration    1 A*A^-1 deviation from orthogonality  is 2.19D-15 for   3486   3007.
 Iteration    1 A^-1*A deviation from unit magnitude is 6.44D-15 for   3457.
 Iteration    1 A^-1*A deviation from orthogonality  is 6.43D-13 for   1530   1476.
 Error on total polarization charges =  0.06110
 SCF Done:  E(RwB97XD) =  -1090.86414138     A.U. after    1 cycles
            NFock=  1  Conv=0.15D-08     -V/T= 2.0110
 SMD-CDS (non-electrostatic) energy       (kcal/mol) =      -1.93
 (included in total energy above)
 DoSCS=F DFT=T ScalE2(SS,OS)=  1.000000  1.000000
 ExpMin= 1.22D-01 ExpMax= 2.27D+03 ExpMxC= 3.41D+02 IAcc=3 IRadAn=         5 AccDes= 0.00D+00
 HarFok:  IExCor=  205 AccDes= 0.00D+00 IRadAn=         5 IDoV=-2 UseB2=F ITyADJ=14
 ICtDFT= 12500011 ScaDFX=  1.000000  1.000000  1.000000  1.000000
 GSVD:  LWork=        -825 too small for GESVD, short by        3500 words or        3500 for optimal perf.
 Range of M.O.s used for correlation:    26   475
 NBasis=   475 NAE=    91 NBE=    91 NFC=    25 NFV=     0
 NROrb=    450 NOA=    66 NOB=    66 NVA=   384 NVB=   384

 **** Warning!!: The largest alpha MO coefficient is  0.16684928D+02

 NEqPCM:  Using non-equilibrium solvation (IEInf=1, Eps=  24.8520, EpsInf=   1.8526)
 Inv3:  Mode=1 IEnd=    36498432.
 Iteration    1 A*A^-1 deviation from unit magnitude is 4.33D-15 for   3484.
 Iteration    1 A*A^-1 deviation from orthogonality  is 3.00D-15 for   1641    173.
 Iteration    1 A^-1*A deviation from unit magnitude is 4.22D-15 for   3484.
 Iteration    1 A^-1*A deviation from orthogonality  is 8.21D-13 for   1512   1476.
 Orbital symmetries:
       Occupied  (A) (A) (A) (A) (A) (A) (A) (A) (A) (A) (A) (A)
                 (A) (A) (A) (A) (A) (A) (A) (A) (A) (A) (A) (A)
                 (A) (A) (A) (A) (A) (A) (A) (A) (A) (A) (A) (A)
                 (A) (A) (A) (A) (A) (A) (A) (A) (A) (A) (A) (A)
                 (A) (A) (A) (A) (A) (A) (A) (A) (A) (A) (A) (A)
                 (A) (A) (A) (A) (A) (A) (A) (A) (A) (A) (A) (A)
                 (A) (A) (A) (A) (A) (A) (A) (A) (A) (A) (A) (A)
                 (A) (A) (A) (A) (A) (A) (A)
       Virtual   (A) (A) (A) (A) (A) (A) (A) (A) (A) (A) (A) (A)
                 (A) (A) (A) (A) (A) (A) (A) (A) (A) (A) (A) (A)
                 (A) (A) (A) (A) (A) (A) (A) (A) (A) (A) (A) (A)
                 (A) (A) (A) (A) (A) (A) (A) (A) (A) (A) (A) (A)
                 (A) (A) (A) (A) (A) (A) (A) (A) (A) (A) (A) (A)
                 (A) (A) (A) (A) (A) (A) (A) (A) (A) (A) (A) (A)
                 (A) (A) (A) (A) (A) (A) (A) (A) (A) (A) (A) (A)
                 (A) (A) (A) (A) (A) (A) (A) (A) (A) (A) (A) (A)
                 (A) (A) (A) (A) (A) (A) (A) (A) (A) (A) (A) (A)
                 (A) (A) (A) (A) (A) (A) (A) (A) (A) (A) (A) (A)
                 (A) (A) (A) (A) (A) (A) (A) (A) (A) (A) (A) (A)
                 (A) (A) (A) (A) (A) (A) (A) (A) (A) (A) (A) (A)
                 (A) (A) (A) (A) (A) (A) (A) (A) (A) (A) (A) (A)
                 (A) (A) (A) (A) (A) (A) (A) (A) (A) (A) (A) (A)
                 (A) (A) (A) (A) (A) (A) (A) (A) (A) (A) (A) (A)
                 (A) (A) (A) (A) (A) (A) (A) (A) (A) (A) (A) (A)
                 (A) (A) (A) (A) (A) (A) (A) (A) (A) (A) (A) (A)
                 (A) (A) (A) (A) (A) (A) (A) (A) (A) (A) (A) (A)
                 (A) (A) (A) (A) (A) (A) (A) (A) (A) (A) (A) (A)
                 (A) (A) (A) (A) (A) (A) (A) (A) (A) (A) (A) (A)
                 (A) (A) (A) (A) (A) (A) (A) (A) (A) (A) (A) (A)
                 (A) (A) (A) (A) (A) (A) (A) (A) (A) (A) (A) (A)
                 (A) (A) (A) (A) (A) (A) (A) (A) (A) (A) (A) (A)
                 (A) (A) (A) (A) (A) (A) (A) (A) (A) (A) (A) (A)
                 (A) (A) (A) (A) (A) (A) (A) (A) (A) (A) (A) (A)
                 (A) (A) (A) (A) (A) (A) (A) (A) (A) (A) (A) (A)
                 (A) (A) (A) (A) (A) (A) (A) (A) (A) (A) (A) (A)
                 (A) (A) (A) (A) (A) (A) (A) (A) (A) (A) (A) (A)
                 (A) (A) (A) (A) (A) (A) (A) (A) (A) (A) (A) (A)
                 (A) (A) (A) (A) (A) (A) (A) (A) (A) (A) (A) (A)
                 (A) (A) (A) (A) (A) (A) (A) (A) (A) (A) (A) (A)
                 (A) (A) (A) (A) (A) (A) (A) (A) (A) (A) (A) (A)
    12 initial guesses have been made.
 Convergence on wavefunction:    0.000001000000000
 Iteration     1 Dimension    12 NMult     0 NNew     12
 CISAX will form    12 AO SS matrices at one time.
 New state      2 was old state      3
 New state      3 was old state      2
 Iteration     2 Dimension    18 NMult    12 NNew      6
 Iteration     3 Dimension    24 NMult    18 NNew      6
 Iteration     4 Dimension    30 NMult    24 NNew      6
 Iteration     5 Dimension    36 NMult    30 NNew      6
 Iteration     6 Dimension    42 NMult    36 NNew      6
 Iteration     7 Dimension    48 NMult    42 NNew      6
 Iteration     8 Dimension    54 NMult    48 NNew      6
 Iteration     9 Dimension    60 NMult    54 NNew      6
 Iteration    10 Dimension    66 NMult    60 NNew      6
 Iteration    11 Dimension    72 NMult    66 NNew      6
 Iteration    12 Dimension    74 NMult    72 NNew      2
 Iteration    13 Dimension    76 NMult    74 NNew      2
 Iteration    14 Dimension    78 NMult    76 NNew      2
 Iteration    15 Dimension    80 NMult    78 NNew      2
 Iteration    16 Dimension    82 NMult    80 NNew      2
 Iteration    17 Dimension    84 NMult    82 NNew      2
 Iteration    18 Dimension    86 NMult    84 NNew      2
 PCM Corrected Linear-Response:
 The state of interest is root number   1
 Excitation energy =    3.4320 eV, Total energy =  -1090.73801727    
 Recompute the excitation energies using the linear response reaction field.
 Convergence on wavefunction:    0.000001000000000
 Iteration     1 Dimension     3 NMult     0 NNew      3
 Iteration     2 Dimension     9 NMult     3 NNew      6
 Iteration     3 Dimension    15 NMult     9 NNew      6
 Iteration     4 Dimension    21 NMult    15 NNew      6
 Iteration     5 Dimension    27 NMult    21 NNew      6
 Iteration     6 Dimension    33 NMult    27 NNew      6
 Iteration     7 Dimension    39 NMult    33 NNew      6
 Iteration     8 Dimension    45 NMult    39 NNew      6
 Iteration     9 Dimension    51 NMult    45 NNew      6
 Iteration    10 Dimension    57 NMult    51 NNew      6
 Iteration    11 Dimension    63 NMult    57 NNew      6
 Iteration    12 Dimension    65 NMult    63 NNew      2
 Iteration    13 Dimension    67 NMult    65 NNew      2
 Iteration    14 Dimension    69 NMult    67 NNew      2
 Iteration    15 Dimension    71 NMult    69 NNew      2
 Iteration    16 Dimension    73 NMult    71 NNew      2
 ***********************************************************************
 Excited states from <AA,BB:AA,BB> singles matrix:
 ***********************************************************************
 
 Ground to excited state transition densities written to RWF  633
 Ground to excited state transition electric dipole moments (Au):
       state          X           Y           Z        Dip. S.      Osc.
         1         2.4113     -0.2755      0.1568      5.9148      0.4856
         2        -0.0783      0.1685     -0.0073      0.0346      0.0037
         3         0.0665      0.0733      0.0418      0.0116      0.0013
 Ground to excited state transition velocity dipole moments (Au):
       state          X           Y           Z        Dip. S.      Osc.
         1        -0.3023      0.0448     -0.0202      0.0938      0.5079
         2         0.0136     -0.0311      0.0016      0.0012      0.0048
         3        -0.0101     -0.0140     -0.0071      0.0003      0.0013
 Ground to excited state transition magnetic dipole moments (Au):
       state          X           Y           Z
         1         0.0747      0.4114     -0.2250
         2        -0.0932     -0.0334      0.9987
         3        -0.2046      0.6804     -0.3053
 Ground to excited state transition velocity quadrupole moments (Au):
       state          XX          YY          ZZ          XY          XZ          YZ
         1        -0.4173      0.1676      0.0255      0.2150      0.1219     -0.0301
         2         0.0732      0.1161      0.0024     -0.2828      0.0061      0.0187
         3        -0.1481      0.0096      0.0185      0.0424     -0.0144      0.0077
 <0|del|b> * <b|rxdel|0> + <0|del|b> * <b|delr+rdel|0>
 Rotatory Strengths (R) in cgs (10**-40 erg-esu-cm/Gauss)
       state          XX          YY          ZZ    R(velocity)    E-M Angle
         1        37.8208    -13.1554    -22.3265      0.7796       89.84
         2         5.3322      2.3857     -1.5055      2.0708       87.66
         3       -15.9169      9.0503    -14.5554     -7.1407      111.47
 1/2[<0|r|b>*<b|rxdel|0> + (<0|rxdel|b>*<b|r|0>)*]
 Rotatory Strengths (R) in cgs (10**-40 erg-esu-cm/Gauss)
       state          XX          YY          ZZ     R(length)
         1      -127.3331     80.1348     24.9513     -7.4157
         2        -5.1611      3.9827      5.1743      1.3320
         3         9.6289    -35.2829      9.0290     -5.5417
  1/2[<0|del|b>*<b|r|0> + (<0|r|b>*<b|del|0>)*] (Au)
       state          X           Y           Z        Dip. S.   Osc.(frdel)
         1        -0.7289     -0.0123     -0.0032      0.7445      0.4963
         2        -0.0011     -0.0052     -0.0000      0.0063      0.0042
         3        -0.0007     -0.0010     -0.0003      0.0020      0.0013

 Excitation energies and oscillator strengths:
 
 Excited State   1:      Singlet-A      3.3507 eV  370.02 nm  f=0.4856  <S**2>=0.000
      91 -> 92         0.69567
 This state for optimization and/or second-order correction.
 Total Energy, E(TD-HF/TD-DFT) =  -1090.74100364    
 Copying the excited state density for this state as the 1-particle RhoCI density.
 
 Excited State   2:      Singlet-A      4.3150 eV  287.33 nm  f=0.0037  <S**2>=0.000
      89 -> 92         0.44605
      91 -> 93         0.50976
 
 Excited State   3:      Singlet-A      4.7423 eV  261.45 nm  f=0.0013  <S**2>=0.000
      85 -> 92         0.18177
      85 -> 94         0.17455
      86 -> 92         0.51366
      86 -> 95         0.18901
      87 -> 92        -0.29023
 SavETr:  write IOETrn=   770 NScale= 10 NData=  16 NLR=1 NState=    3 LETran=      64.
 NEqPCM:  Using equilibrium solvation (IEInf=0, Eps=  24.8520, EpsInf=   1.8526)
          Differentiating once with respect to electric field.
                with respect to dipole field.
          Electric field/nuclear overlap derivatives assumed to be zero.
          There are     1 degrees of freedom in the 1st order CPHF.  IDoFFX=0 NUNeed=     1.
 LinEq1:  Iter=  0 NonCon=     1 RMS=2.32D-03 Max=1.49D-01 NDo=     1
 AX will form     1 AO Fock derivatives at one time.
 LinEq1:  Iter=  1 NonCon=     1 RMS=8.89D-04 Max=5.04D-02 NDo=     1
 LinEq1:  Iter=  2 NonCon=     1 RMS=3.78D-04 Max=1.80D-02 NDo=     1
 LinEq1:  Iter=  3 NonCon=     1 RMS=1.76D-04 Max=1.96D-02 NDo=     1
 LinEq1:  Iter=  4 NonCon=     1 RMS=8.73D-05 Max=4.60D-03 NDo=     1
 LinEq1:  Iter=  5 NonCon=     1 RMS=5.10D-05 Max=2.62D-03 NDo=     1
 LinEq1:  Iter=  6 NonCon=     1 RMS=2.67D-05 Max=1.72D-03 NDo=     1
 LinEq1:  Iter=  7 NonCon=     1 RMS=1.25D-05 Max=6.26D-04 NDo=     1
 LinEq1:  Iter=  8 NonCon=     1 RMS=5.56D-06 Max=2.72D-04 NDo=     1
 LinEq1:  Iter=  9 NonCon=     1 RMS=3.27D-06 Max=1.29D-04 NDo=     1
 LinEq1:  Iter= 10 NonCon=     1 RMS=1.38D-06 Max=6.58D-05 NDo=     1
 LinEq1:  Iter= 11 NonCon=     1 RMS=7.37D-07 Max=3.42D-05 NDo=     1
 LinEq1:  Iter= 12 NonCon=     1 RMS=2.92D-07 Max=1.28D-05 NDo=     1
 LinEq1:  Iter= 13 NonCon=     1 RMS=1.35D-07 Max=8.64D-06 NDo=     1
 LinEq1:  Iter= 14 NonCon=     1 RMS=5.82D-08 Max=4.16D-06 NDo=     1
 LinEq1:  Iter= 15 NonCon=     1 RMS=2.55D-08 Max=1.43D-06 NDo=     1
 LinEq1:  Iter= 16 NonCon=     1 RMS=1.24D-08 Max=6.43D-07 NDo=     1
 LinEq1:  Iter= 17 NonCon=     1 RMS=5.52D-09 Max=2.60D-07 NDo=     1
 LinEq1:  Iter= 18 NonCon=     1 RMS=1.82D-09 Max=1.16D-07 NDo=     1
 LinEq1:  Iter= 19 NonCon=     1 RMS=8.30D-10 Max=3.71D-08 NDo=     1
 LinEq1:  Iter= 20 NonCon=     1 RMS=3.37D-10 Max=1.39D-08 NDo=     1
 LinEq1:  Iter= 21 NonCon=     1 RMS=1.18D-10 Max=5.23D-09 NDo=     1
 LinEq1:  Iter= 22 NonCon=     1 RMS=5.77D-11 Max=2.77D-09 NDo=     1
 LinEq1:  Iter= 23 NonCon=     0 RMS=1.79D-11 Max=7.18D-10 NDo=     1
 Linear equations converged to 1.000D-10 1.000D-09 after    23 iterations.
 PCM Corrected Linear-Response - Non-equilibrium solvation:
 Corrected transition energy               =    3.3759          eV
 Total energy after correction             = -1090.74008045     a.u.
 End of Minotr F.D. properties file   721 does not exist.
 End of Minotr F.D. properties file   722 does not exist.
 End of Minotr F.D. properties file   788 does not exist.

 **********************************************************************

            Population analysis using the CI density.

 **********************************************************************

 Orbital symmetries:
       Occupied  (A) (A) (A) (A) (A) (A) (A) (A) (A) (A) (A) (A)
                 (A) (A) (A) (A) (A) (A) (A) (A) (A) (A) (A) (A)
                 (A) (A) (A) (A) (A) (A) (A) (A) (A) (A) (A) (A)
                 (A) (A) (A) (A) (A) (A) (A) (A) (A) (A) (A) (A)
                 (A) (A) (A) (A) (A) (A) (A) (A) (A) (A) (A) (A)
                 (A) (A) (A) (A) (A) (A) (A) (A) (A) (A) (A) (A)
                 (A) (A) (A) (A) (A) (A) (A) (A) (A) (A) (A) (A)
                 (A) (A) (A) (A) (A) (A) (A)
       Virtual   (A) (A) (A) (A) (A) (A) (A) (A) (A) (A) (A) (A)
                 (A) (A) (A) (A) (A) (A) (A) (A) (A) (A) (A) (A)
                 (A) (A) (A) (A) (A) (A) (A) (A) (A) (A) (A) (A)
                 (A) (A) (A) (A) (A) (A) (A) (A) (A) (A) (A) (A)
                 (A) (A) (A) (A) (A) (A) (A) (A) (A) (A) (A) (A)
                 (A) (A) (A) (A) (A) (A) (A) (A) (A) (A) (A) (A)
                 (A) (A) (A) (A) (A) (A) (A) (A) (A) (A) (A) (A)
                 (A) (A) (A) (A) (A) (A) (A) (A) (A) (A) (A) (A)
                 (A) (A) (A) (A) (A) (A) (A) (A) (A) (A) (A) (A)
                 (A) (A) (A) (A) (A) (A) (A) (A) (A) (A) (A) (A)
                 (A) (A) (A) (A) (A) (A) (A) (A) (A) (A) (A) (A)
                 (A) (A) (A) (A) (A) (A) (A) (A) (A) (A) (A) (A)
                 (A) (A) (A) (A) (A) (A) (A) (A) (A) (A) (A) (A)
                 (A) (A) (A) (A) (A) (A) (A) (A) (A) (A) (A) (A)
                 (A) (A) (A) (A) (A) (A) (A) (A) (A) (A) (A) (A)
                 (A) (A) (A) (A) (A) (A) (A) (A) (A) (A) (A) (A)
                 (A) (A) (A) (A) (A) (A) (A) (A) (A) (A) (A) (A)
                 (A) (A) (A) (A) (A) (A) (A) (A) (A) (A) (A) (A)
                 (A) (A) (A) (A) (A) (A) (A) (A) (A) (A) (A) (A)
                 (A) (A) (A) (A) (A) (A) (A) (A) (A) (A) (A) (A)
                 (A) (A) (A) (A) (A) (A) (A) (A) (A) (A) (A) (A)
                 (A) (A) (A) (A) (A) (A) (A) (A) (A) (A) (A) (A)
                 (A) (A) (A) (A) (A) (A) (A) (A) (A) (A) (A) (A)
                 (A) (A) (A) (A) (A) (A) (A) (A) (A) (A) (A) (A)
                 (A) (A) (A) (A) (A) (A) (A) (A) (A) (A) (A) (A)
                 (A) (A) (A) (A) (A) (A) (A) (A) (A) (A) (A) (A)
                 (A) (A) (A) (A) (A) (A) (A) (A) (A) (A) (A) (A)
                 (A) (A) (A) (A) (A) (A) (A) (A) (A) (A) (A) (A)
                 (A) (A) (A) (A) (A) (A) (A) (A) (A) (A) (A) (A)
                 (A) (A) (A) (A) (A) (A) (A) (A) (A) (A) (A) (A)
                 (A) (A) (A) (A) (A) (A) (A) (A) (A) (A) (A) (A)
                 (A) (A) (A) (A) (A) (A) (A) (A) (A) (A) (A) (A)
 The electronic state is 1-A.
 Alpha  occ. eigenvalues --  -19.24291 -19.23770 -14.49463 -14.46817 -14.43851
 Alpha  occ. eigenvalues --  -10.42110 -10.41600 -10.36693 -10.32856 -10.32812
 Alpha  occ. eigenvalues --  -10.32402 -10.32278 -10.32185 -10.31995 -10.31971
 Alpha  occ. eigenvalues --  -10.31968 -10.31817 -10.30975 -10.30940 -10.30922
 Alpha  occ. eigenvalues --  -10.30194 -10.29766 -10.28661 -10.28414 -10.27939
 Alpha  occ. eigenvalues --   -1.15796  -1.13610  -1.05393  -1.03366  -1.01602
 Alpha  occ. eigenvalues --   -0.98100  -0.92846  -0.89982  -0.87688  -0.85145
 Alpha  occ. eigenvalues --   -0.84689  -0.82471  -0.81154  -0.79137  -0.76121
 Alpha  occ. eigenvalues --   -0.75237  -0.74250  -0.72189  -0.71160  -0.70116
 Alpha  occ. eigenvalues --   -0.66737  -0.66238  -0.65234  -0.62817  -0.60686
 Alpha  occ. eigenvalues --   -0.59956  -0.58620  -0.57592  -0.57492  -0.55994
 Alpha  occ. eigenvalues --   -0.55808  -0.55109  -0.54095  -0.53527  -0.53146
 Alpha  occ. eigenvalues --   -0.52611  -0.52249  -0.51962  -0.51037  -0.50514
 Alpha  occ. eigenvalues --   -0.49557  -0.49389  -0.48562  -0.48470  -0.47973
 Alpha  occ. eigenvalues --   -0.47067  -0.46484  -0.46075  -0.44707  -0.44532
 Alpha  occ. eigenvalues --   -0.44130  -0.43762  -0.43148  -0.42461  -0.42302
 Alpha  occ. eigenvalues --   -0.42076  -0.40298  -0.40122  -0.39574  -0.36870
 Alpha  occ. eigenvalues --   -0.35376  -0.35320  -0.34061  -0.33713  -0.30028
 Alpha  occ. eigenvalues --   -0.27070
 Alpha virt. eigenvalues --   -0.01959   0.04157   0.05008   0.08736   0.13624
 Alpha virt. eigenvalues --    0.15081   0.15494   0.16545   0.16960   0.17694
 Alpha virt. eigenvalues --    0.18008   0.18242   0.18409   0.18746   0.19151
 Alpha virt. eigenvalues --    0.19450   0.20216   0.20934   0.21549   0.22312
 Alpha virt. eigenvalues --    0.22574   0.22676   0.23025   0.23837   0.23939
 Alpha virt. eigenvalues --    0.24466   0.24820   0.25003   0.25451   0.26544
 Alpha virt. eigenvalues --    0.26823   0.27310   0.28001   0.28598   0.29934
 Alpha virt. eigenvalues --    0.30408   0.30706   0.31127   0.31775   0.32349
 Alpha virt. eigenvalues --    0.32695   0.33212   0.33430   0.33765   0.34408
 Alpha virt. eigenvalues --    0.35240   0.35422   0.36022   0.36635   0.37840
 Alpha virt. eigenvalues --    0.38710   0.39229   0.41811   0.42502   0.43401
 Alpha virt. eigenvalues --    0.44178   0.45082   0.47435   0.49481   0.49669
 Alpha virt. eigenvalues --    0.50360   0.50835   0.51052   0.52326   0.52362
 Alpha virt. eigenvalues --    0.52627   0.53164   0.53286   0.53770   0.54284
 Alpha virt. eigenvalues --    0.54472   0.54871   0.55407   0.55918   0.56356
 Alpha virt. eigenvalues --    0.57326   0.58453   0.59202   0.60009   0.60716
 Alpha virt. eigenvalues --    0.62364   0.62922   0.63192   0.63888   0.65418
 Alpha virt. eigenvalues --    0.65988   0.67310   0.68394   0.69011   0.69316
 Alpha virt. eigenvalues --    0.69877   0.70564   0.70686   0.70922   0.71936
 Alpha virt. eigenvalues --    0.72194   0.72427   0.73092   0.73495   0.73666
 Alpha virt. eigenvalues --    0.74151   0.74362   0.74694   0.74791   0.75125
 Alpha virt. eigenvalues --    0.75678   0.75744   0.76315   0.76442   0.76844
 Alpha virt. eigenvalues --    0.77268   0.77457   0.77672   0.77967   0.78261
 Alpha virt. eigenvalues --    0.78623   0.78991   0.79203   0.79551   0.79769
 Alpha virt. eigenvalues --    0.80311   0.80674   0.81089   0.81774   0.81912
 Alpha virt. eigenvalues --    0.82574   0.82768   0.83248   0.83307   0.84210
 Alpha virt. eigenvalues --    0.84442   0.85160   0.86403   0.87374   0.87453
 Alpha virt. eigenvalues --    0.88891   0.90145   0.91027   0.91858   0.92542
 Alpha virt. eigenvalues --    0.93798   0.94529   0.94916   0.97564   0.98086
 Alpha virt. eigenvalues --    0.98805   0.99293   0.99797   1.01338   1.04494
 Alpha virt. eigenvalues --    1.06364   1.07457   1.09318   1.10318   1.11594
 Alpha virt. eigenvalues --    1.12806   1.13987   1.16083   1.17031   1.17957
 Alpha virt. eigenvalues --    1.18243   1.19493   1.20567   1.20920   1.22822
 Alpha virt. eigenvalues --    1.24042   1.24890   1.26175   1.27045   1.28029
 Alpha virt. eigenvalues --    1.28372   1.28973   1.29904   1.30711   1.30951
 Alpha virt. eigenvalues --    1.32119   1.32761   1.33126   1.33524   1.33984
 Alpha virt. eigenvalues --    1.36044   1.36271   1.38092   1.39886   1.41008
 Alpha virt. eigenvalues --    1.41127   1.42413   1.43402   1.43780   1.45132
 Alpha virt. eigenvalues --    1.47609   1.48415   1.49291   1.51365   1.52199
 Alpha virt. eigenvalues --    1.53095   1.55098   1.56581   1.57472   1.58444
 Alpha virt. eigenvalues --    1.58981   1.59766   1.60979   1.61548   1.62597
 Alpha virt. eigenvalues --    1.62653   1.63107   1.63557   1.66142   1.67971
 Alpha virt. eigenvalues --    1.70352   1.74698   1.75089   1.76344   1.76575
 Alpha virt. eigenvalues --    1.78579   1.79300   1.79719   1.79943   1.81134
 Alpha virt. eigenvalues --    1.81450   1.82223   1.82768   1.83215   1.84122
 Alpha virt. eigenvalues --    1.84600   1.84917   1.85923   1.85995   1.86524
 Alpha virt. eigenvalues --    1.86822   1.87149   1.87353   1.88076   1.88673
 Alpha virt. eigenvalues --    1.89108   1.89441   1.89807   1.90204   1.91120
 Alpha virt. eigenvalues --    1.91567   1.91778   1.92735   1.93200   1.94575
 Alpha virt. eigenvalues --    1.94969   1.95432   1.95514   1.95756   1.96316
 Alpha virt. eigenvalues --    1.97279   1.97787   1.98179   1.99048   1.99804
 Alpha virt. eigenvalues --    2.00999   2.02000   2.02116   2.02679   2.03290
 Alpha virt. eigenvalues --    2.03374   2.03885   2.05055   2.06456   2.06649
 Alpha virt. eigenvalues --    2.07642   2.07691   2.09909   2.10814   2.11036
[...]
    42  N   -0.000000   0.000000  -0.000000   0.000000  -0.000000  -0.000000
    43  C   -0.000000   0.000000  -0.000000   0.000000   0.000000  -0.000000
    44  H    0.000000  -0.000000   0.000000   0.000000   0.000000  -0.000000
    45  H   -0.000000   0.000000   0.000000  -0.000000  -0.000000   0.000000
    46  H    0.000000  -0.000000  -0.000000   0.000000   0.000000  -0.000000
    47  C    0.000000  -0.000000  -0.000000  -0.000000   0.000000   0.000000
    48  H   -0.000000   0.000000  -0.000000  -0.000000  -0.000000  -0.000000
    49  H    0.000000  -0.000000   0.000000   0.000000   0.000000   0.000000
    50  H   -0.000000   0.000000  -0.000000   0.000000   0.000000  -0.000000
              31         32         33         34         35         36
     1  O    0.000011  -0.000003  -0.000019   0.000001  -0.000000   0.000000
     2  C   -0.000008   0.000000  -0.000000   0.000000  -0.000000   0.007737
     3  C   -0.000000  -0.000000   0.000000  -0.000000   0.000000  -0.046683
     4  O   -0.002316   0.000149  -0.000004  -0.000003  -0.000003   0.000000
     5  N   -0.000000  -0.000000   0.000000   0.000000   0.000000   0.317221
     6  H   -0.000000  -0.000000   0.000000  -0.000000   0.000000  -0.053405
     7  C   -0.000205  -0.000003  -0.000001  -0.000000   0.000000   0.000047
     8  N    0.006039  -0.000243   0.000043  -0.000000   0.000008   0.000000
     9  C    0.000233  -0.000001   0.000000   0.000000  -0.000000  -0.000142
    10  C    0.000000   0.000000   0.000000   0.000000  -0.000000   0.000775
    11  H   -0.000000  -0.000000   0.000000   0.000000   0.000000   0.007741
    12  C    0.000159   0.000015  -0.000001  -0.000000  -0.000001   0.000004
    13  C    0.000048   0.000001   0.000000  -0.000000  -0.000000   0.000001
    14  H    0.000034  -0.000000   0.000000  -0.000000  -0.000000   0.000000
    15  C   -0.000002  -0.000000   0.000000   0.000000   0.000000   0.000011
    16  H   -0.000000  -0.000000  -0.000000  -0.000000  -0.000000  -0.000000
    17  C    0.005035  -0.000042  -0.000012   0.000008   0.000007  -0.000000
    18  C    0.000000   0.000000  -0.000000  -0.000000  -0.000000   0.000683
    19  H    0.000000   0.000000  -0.000000   0.000000  -0.000000   0.000120
    20  C    0.000384  -0.000049  -0.000009   0.000001   0.000001   0.000000
    21  C   -0.015475   0.009016   0.000344   0.000090  -0.000407  -0.000000
    22  H    0.000052  -0.000327   0.000002  -0.000010   0.000011  -0.000000
    23  H   -0.000738   0.000257   0.000012  -0.000034  -0.000001   0.000000
    24  C   -0.000011   0.000000  -0.000000  -0.000000   0.000000   0.000308
    25  H    0.000000   0.000000   0.000000  -0.000000   0.000000  -0.000021
    26  C   -0.013507  -0.054583  -0.006765  -0.006368   0.006973   0.000000
    27  H    0.007993  -0.004555  -0.001406   0.006389  -0.000039  -0.000000
    28  H   -0.008981  -0.004369   0.006332  -0.001413  -0.000097   0.000000
    29  C    0.376785   0.414583  -0.021186  -0.024116  -0.015956  -0.000000
    30  H   -0.030678  -0.023526   0.007423  -0.008424  -0.005704  -0.000000
    31  H    0.666539  -0.023365  -0.008443   0.007461  -0.005792  -0.000000
    32  C   -0.023365   4.573900   0.392921   0.396970   0.389277  -0.000000
    33  H   -0.008443   0.392921   0.640530  -0.024365  -0.022206   0.000000
    34  H    0.007461   0.396970  -0.024365   0.638845  -0.022626  -0.000000
    35  H   -0.005792   0.389277  -0.022206  -0.022626   0.633504   0.000000
    36  C   -0.000000  -0.000000   0.000000  -0.000000   0.000000   4.656406
    37  H    0.000000   0.000000  -0.000000  -0.000000  -0.000000   0.383411
    38  H   -0.000000  -0.000000   0.000000   0.000000   0.000000   0.388374
    39  C    0.000000   0.000000   0.000000  -0.000000  -0.000000   0.378186
    40  H    0.000000   0.000000   0.000000  -0.000000  -0.000000  -0.034486
    41  H    0.000000   0.000000  -0.000000  -0.000000  -0.000000  -0.014276
    42  N    0.000000  -0.000000  -0.000000   0.000000  -0.000000  -0.075593
    43  C   -0.000000  -0.000000   0.000000   0.000000   0.000000   0.009719
    44  H   -0.000000  -0.000000   0.000000   0.000000   0.000000  -0.000345
    45  H    0.000000   0.000000  -0.000000   0.000000  -0.000000  -0.000659
    46  H   -0.000000  -0.000000   0.000000   0.000000   0.000000   0.000812
    47  C   -0.000000   0.000000  -0.000000   0.000000  -0.000000   0.002083
    48  H    0.000000   0.000000  -0.000000  -0.000000  -0.000000  -0.006629
    49  H   -0.000000  -0.000000  -0.000000   0.000000   0.000000   0.000005
    50  H   -0.000000  -0.000000   0.000000   0.000000   0.000000   0.014019
              37         38         39         40         41         42
     1  O   -0.000000   0.000000   0.000000  -0.000000  -0.000000  -0.000000
     2  C   -0.000207  -0.000710   0.000228   0.000029  -0.000055   0.000588
     3  C   -0.004968  -0.015278   0.009844  -0.000364   0.000239  -0.001577
     4  O    0.000000   0.000000   0.000000   0.000000  -0.000000  -0.000000
     5  N   -0.032860  -0.013765  -0.043026   0.004273  -0.001403  -0.015969
     6  H   -0.000184   0.005809  -0.020720   0.003457  -0.002895   0.064070
     7  C   -0.000025  -0.000030   0.000004  -0.000000  -0.000000  -0.000000
     8  N    0.000000   0.000000   0.000000   0.000000  -0.000000   0.000000
     9  C    0.000006   0.000017   0.000002   0.000000  -0.000002   0.000006
    10  C    0.001575   0.006769   0.000501  -0.000025  -0.000091  -0.000094
    11  H   -0.000972  -0.000385   0.000561  -0.000001  -0.000007  -0.000007
    12  C   -0.000001   0.000000  -0.000000   0.000000   0.000000  -0.000000
    13  C    0.000000  -0.000000   0.000000   0.000000  -0.000000   0.000000
    14  H    0.000000   0.000000  -0.000000   0.000000  -0.000000   0.000000
    15  C    0.000004   0.000000   0.000001  -0.000000   0.000002  -0.000025
    16  H   -0.000000   0.000000  -0.000000   0.000000  -0.000000  -0.000000
    17  C   -0.000000   0.000000   0.000000  -0.000000   0.000000  -0.000000
    18  C   -0.000019  -0.000065  -0.000076  -0.000013   0.000047  -0.000926
    19  H    0.000062  -0.000074   0.000300  -0.000001   0.000037   0.000498
    20  C    0.000000   0.000000   0.000000  -0.000000  -0.000000  -0.000000
    21  C    0.000000  -0.000000  -0.000000  -0.000000   0.000000  -0.000000
    22  H    0.000000  -0.000000   0.000000   0.000000   0.000000  -0.000000
    23  H   -0.000000   0.000000  -0.000000  -0.000000  -0.000000   0.000000
    24  C    0.000073   0.000888  -0.000048   0.000001  -0.000001   0.000001
    25  H    0.000014   0.000011  -0.000000  -0.000000   0.000000  -0.000000
    26  C   -0.000000   0.000000  -0.000000  -0.000000  -0.000000   0.000000
    27  H    0.000000  -0.000000   0.000000   0.000000   0.000000  -0.000000
    28  H   -0.000000   0.000000  -0.000000  -0.000000  -0.000000   0.000000
    29  C    0.000000  -0.000000  -0.000000  -0.000000   0.000000  -0.000000
    30  H    0.000000  -0.000000   0.000000   0.000000   0.000000  -0.000000
    31  H    0.000000  -0.000000   0.000000   0.000000   0.000000   0.000000
    32  C    0.000000  -0.000000   0.000000   0.000000   0.000000  -0.000000
    33  H   -0.000000   0.000000   0.000000   0.000000  -0.000000  -0.000000
    34  H   -0.000000   0.000000  -0.000000  -0.000000  -0.000000   0.000000
    35  H   -0.000000   0.000000  -0.000000  -0.000000  -0.000000  -0.000000
    36  C    0.383411   0.388374   0.378186  -0.034486  -0.014276  -0.075593
    37  H    0.618303  -0.031187  -0.009317  -0.006237   0.006969  -0.006315
    38  H   -0.031187   0.590619  -0.013724  -0.000136  -0.011444   0.004637
    39  C   -0.009317  -0.013724   4.618824   0.383243   0.393547   0.336104
    40  H   -0.006237  -0.000136   0.383243   0.663000  -0.026882  -0.031503
    41  H    0.006969  -0.011444   0.393547  -0.026882   0.628200  -0.032491
    42  N   -0.006315   0.004637   0.336104  -0.031503  -0.032491   6.717053
    43  C   -0.000211  -0.000156  -0.049854  -0.002909  -0.005989   0.350210
    44  H    0.000014   0.000009   0.007207  -0.000534   0.000508  -0.026514
    45  H   -0.000027   0.000024  -0.008751   0.011182  -0.003198  -0.037065
    46  H   -0.000000  -0.000051  -0.003950  -0.002012   0.006138  -0.025966
    47  C    0.002425   0.000037  -0.055439  -0.007605   0.007801   0.328893
    48  H    0.000316   0.000087  -0.002212   0.012517  -0.000499  -0.038913
    49  H   -0.000202  -0.000001   0.007735  -0.000198  -0.000339  -0.024642
    50  H   -0.001967   0.000196  -0.012259  -0.002928   0.000154  -0.027031
              43         44         45         46         47         48
     1  O    0.000000   0.000000  -0.000000  -0.000000  -0.000000   0.000000
     2  C   -0.000000  -0.000003   0.000001  -0.000007  -0.000048   0.000008
     3  C    0.000034   0.000002  -0.000005   0.000011  -0.000105  -0.000042
     4  O   -0.000000   0.000000   0.000000   0.000000  -0.000000  -0.000000
     5  N   -0.000056   0.000041  -0.000056   0.000161  -0.001683   0.000100
     6  H   -0.001910  -0.000584   0.000802  -0.001159  -0.002093   0.001455
     7  C    0.000000   0.000000  -0.000000   0.000000  -0.000000  -0.000000
     8  N    0.000000  -0.000000   0.000000  -0.000000  -0.000000   0.000000
     9  C   -0.000000  -0.000000   0.000000  -0.000000  -0.000002   0.000000
    10  C    0.000001   0.000000  -0.000000   0.000001  -0.000023  -0.000006
    11  H    0.000000   0.000000   0.000000   0.000000  -0.000010  -0.000001
    12  C   -0.000000   0.000000  -0.000000   0.000000   0.000000  -0.000000
    13  C    0.000000  -0.000000   0.000000  -0.000000  -0.000000   0.000000
    14  H   -0.000000  -0.000000   0.000000  -0.000000   0.000000   0.000000
    15  C    0.000000   0.000001  -0.000000   0.000001   0.000002  -0.000000
    16  H   -0.000000  -0.000000   0.000000  -0.000000  -0.000000   0.000000
    17  C    0.000000   0.000000  -0.000000   0.000000   0.000000  -0.000000
    18  C   -0.000001   0.000006  -0.000002   0.000010   0.000048  -0.000007
    19  H    0.000073   0.000008  -0.000000   0.000023  -0.000027   0.000002
    20  C   -0.000000   0.000000  -0.000000   0.000000   0.000000  -0.000000
    21  C   -0.000000   0.000000  -0.000000   0.000000   0.000000  -0.000000
    22  H   -0.000000  -0.000000   0.000000  -0.000000   0.000000  -0.000000
    23  H    0.000000   0.000000  -0.000000   0.000000  -0.000000  -0.000000
    24  C   -0.000000  -0.000000   0.000000  -0.000000   0.000001   0.000000
    25  H   -0.000000   0.000000  -0.000000   0.000000   0.000000  -0.000000
    26  C    0.000000  -0.000000   0.000000  -0.000000  -0.000000   0.000000
    27  H   -0.000000   0.000000   0.000000  -0.000000  -0.000000  -0.000000
    28  H    0.000000   0.000000  -0.000000   0.000000  -0.000000  -0.000000
    29  C    0.000000   0.000000  -0.000000   0.000000   0.000000  -0.000000
    30  H   -0.000000  -0.000000   0.000000  -0.000000   0.000000  -0.000000
    31  H   -0.000000  -0.000000   0.000000  -0.000000  -0.000000   0.000000
    32  C   -0.000000  -0.000000   0.000000  -0.000000   0.000000   0.000000
    33  H    0.000000   0.000000  -0.000000   0.000000  -0.000000  -0.000000
    34  H    0.000000   0.000000   0.000000   0.000000   0.000000  -0.000000
    35  H    0.000000   0.000000  -0.000000   0.000000  -0.000000  -0.000000
    36  C    0.009719  -0.000345  -0.000659   0.000812   0.002083  -0.006629
    37  H   -0.000211   0.000014  -0.000027  -0.000000   0.002425   0.000316
    38  H   -0.000156   0.000009   0.000024  -0.000051   0.000037   0.000087
    39  C   -0.049854   0.007207  -0.008751  -0.003950  -0.055439  -0.002212
    40  H   -0.002909  -0.000534   0.011182  -0.002012  -0.007605   0.012517
    41  H   -0.005989   0.000508  -0.003198   0.006138   0.007801  -0.000499
    42  N    0.350210  -0.026514  -0.037065  -0.025966   0.328893  -0.038913
    43  C    4.493513   0.402766   0.390864   0.402149  -0.045445  -0.003292
    44  H    0.402766   0.616475  -0.032499  -0.017329  -0.003555  -0.002647
    45  H    0.390864  -0.032499   0.688142  -0.031062  -0.006485   0.012953
    46  H    0.402149  -0.017329  -0.031062   0.614017   0.006889  -0.000433
    47  C   -0.045445  -0.003555  -0.006485   0.006889   4.526330   0.388193
    48  H   -0.003292  -0.002647   0.012953  -0.000433   0.388193   0.680123
    49  H   -0.004936   0.004640  -0.002659   0.000413   0.400904  -0.029338
    50  H    0.006101   0.000519  -0.000666  -0.000339   0.406011  -0.033566
              49         50
     1  O   -0.000000   0.000000
     2  C   -0.000012  -0.000208
     3  C    0.000026   0.000255
     4  O    0.000000  -0.000000
     5  N    0.000116   0.001639
     6  H   -0.001066  -0.002914
     7  C    0.000000   0.000000
     8  N   -0.000000  -0.000000
     9  C   -0.000000  -0.000012
    10  C    0.000003   0.000051
    11  H    0.000000  -0.000000
    12  C    0.000000   0.000000
    13  C   -0.000000  -0.000000
    14  H   -0.000000  -0.000000
    15  C    0.000002   0.000004
    16  H   -0.000000   0.000000
    17  C    0.000000   0.000000
    18  C    0.000019   0.000147
    19  H    0.000018  -0.000071
    20  C    0.000000   0.000000
    21  C    0.000000  -0.000000
    22  H    0.000000  -0.000000
    23  H    0.000000   0.000000
    24  C   -0.000000   0.000001
    25  H    0.000000  -0.000000
    26  C   -0.000000   0.000000
    27  H    0.000000  -0.000000
    28  H    0.000000   0.000000
    29  C    0.000000   0.000000
    30  H    0.000000  -0.000000
    31  H   -0.000000  -0.000000
    32  C   -0.000000  -0.000000
    33  H   -0.000000   0.000000
    34  H    0.000000   0.000000
    35  H    0.000000   0.000000
    36  C    0.000005   0.014019
    37  H   -0.000202  -0.001967
    38  H   -0.000001   0.000196
    39  C    0.007735  -0.012259
    40  H   -0.000198  -0.002928
    41  H   -0.000339   0.000154
    42  N   -0.024642  -0.027031
    43  C   -0.004936   0.006101
    44  H    0.004640   0.000519
    45  H   -0.002659  -0.000666
    46  H    0.000413  -0.000339
    47  C    0.400904   0.406011
    48  H   -0.029338  -0.033566
    49  H    0.611026  -0.015283
    50  H   -0.015283   0.612435
 Mulliken charges:
               1
     1  O   -0.323912
     2  C    0.058376
     3  C    0.112503
     4  O   -0.345807
     5  N   -0.138801
     6  H    0.173301
     7  C   -0.034631
     8  N   -0.344232
     9  C    0.124367
    10  C   -0.063720
    11  H    0.062050
    12  C   -0.120961
    13  C   -0.102740
    14  H    0.022501
    15  C   -0.022214
    16  H    0.044083
    17  C    0.221320
    18  C   -0.150086
    19  H    0.034340
    20  C    0.243831
    21  C    0.153000
    22  H    0.045681
    23  H    0.043421
    24  C   -0.069862
    25  H    0.042554
    26  C   -0.075921
    27  H    0.042842
    28  H    0.028418
    29  C   -0.099885
    30  H    0.028451
    31  H    0.038746
    32  C   -0.066021
    33  H    0.036812
    34  H    0.037595
    35  H    0.043051
    36  C    0.064576
    37  H    0.081527
    38  H    0.089529
    39  C    0.083088
    40  H    0.038132
    41  H    0.055928
    42  N   -0.457431
    43  C    0.059328
    44  H    0.051813
    45  H    0.019166
    46  H    0.051681
    47  C    0.052902
    48  H    0.021831
    49  H    0.053770
    50  H    0.055712
 Sum of Mulliken charges =  -0.00000
 Mulliken charges with hydrogens summed into heavy atoms:
               1
     1  O   -0.323912
     2  C    0.058376
     3  C    0.112503
     4  O   -0.345807
     5  N    0.034499
     7  C   -0.034631
     8  N   -0.344232
     9  C    0.124367
    10  C   -0.001670
    12  C   -0.120961
    13  C   -0.080240
    15  C    0.021869
    17  C    0.221320
    18  C   -0.115745
    20  C    0.243831
    21  C    0.242102
    24  C   -0.027308
    26  C   -0.004661
    29  C   -0.032688
    32  C    0.051438
    36  C    0.235631
    39  C    0.177148
    42  N   -0.457431
    43  C    0.181988
    47  C    0.184215
 Electronic spatial extent (au):  <R**2>=          12288.4591
 Charge=             -0.0000 electrons
 Dipole moment (field-independent basis, Debye):
    X=             16.2440    Y=             -3.2639    Z=              1.9627  Tot=             16.6845
 Quadrupole moment (field-independent basis, Debye-Ang):
   XX=           -116.6147   YY=           -155.5421   ZZ=           -150.3427
   XY=             -2.5374   XZ=             -2.8179   YZ=              1.6990
 Traceless Quadrupole moment (field-independent basis, Debye-Ang):
   XX=             24.2185   YY=            -14.7089   ZZ=             -9.5096
   XY=             -2.5374   XZ=             -2.8179   YZ=              1.6990
 Octapole moment (field-independent basis, Debye-Ang**2):
  XXX=            300.0059  YYY=             -0.1407  ZZZ=              8.5964  XYY=            100.8418
  XXY=            -44.6862  XXZ=             23.3878  XZZ=             18.4157  YZZ=             -6.2996
  YYZ=             11.1779  XYZ=              0.3495
 Hexadecapole moment (field-independent basis, Debye-Ang**3):
 XXXX=         -11787.2582 YYYY=          -1990.0113 ZZZZ=          -1180.1251 XXXY=             89.1345
 XXXZ=             80.3256 YYYX=            -44.7752 YYYZ=              1.2619 ZZZX=             65.7038
 ZZZY=             20.6735 XXYY=          -2648.2167 XXZZ=          -2357.6492 YYZZ=           -555.2680
 XXYZ=             47.6588 YYXZ=            -41.3805 ZZXY=              5.0741
 N-N= 2.158587085135D+03 E-N=-6.848842309602D+03  KE= 1.079109827983D+03
 1\1\GINC-NODE-2-16\SP\RwB97XD TD-FC\def2SVP\C20H25N3O2\ROOT\02-Jun-202
 2\0\\# wB97XD/def2SVP geom=check guess=read TD=(NStates=3, Root=1) SCR
 F=(SMD, solvent=Ethanol, CorrectedLR)\\02_wB97XD_EtOH\\0,1\O,0,-2.8526
 22,-2.431643,-0.737025\C,0,0.992723,0.483981,-0.490679\C,0,1.892205,-0
 .655028,-0.426022\O,0,-3.551387,2.056129,-0.758698\N,0,3.220124,-0.462
 83,-0.332286\H,0,3.586684,0.458916,-0.108336\C,0,-0.9224,-1.070699,-0.
 614727\N,0,-3.199379,-0.189146,-0.737929\C,0,-0.407138,0.249958,-0.578
 491\C,0,1.341394,-1.947683,-0.474608\H,0,1.995167,-2.81836,-0.430172\C
 ,0,-1.295824,1.352844,-0.631176\C,0,-0.811267,2.649243,-0.605128\H,0,-
 1.514673,3.482857,-0.646586\C,0,0.569939,2.884112,-0.530596\H,0,0.9485
 08,3.907697,-0.51824\C,0,-2.757709,1.128643,-0.7135\C,0,1.451266,1.821
 395,-0.475646\H,0,2.519523,2.041793,-0.427472\C,0,-2.361038,-1.311328,
 -0.699518\C,0,-4.643659,-0.437323,-0.799356\H,0,-4.804674,-1.268299,-1
 .49732\H,0,-5.104535,0.46169,-1.223845\C,0,-0.034552,-2.138773,-0.5673
 76\H,0,-0.432615,-3.155573,-0.596981\C,0,-5.263004,-0.769089,0.555855\
 H,0,-6.334701,-0.966212,0.381924\H,0,-4.832345,-1.713562,0.928136\C,0,
 -5.109955,0.317308,1.617142\H,0,-5.533805,1.262806,1.238603\H,0,-4.037
 46,0.511318,1.792163\C,0,-5.772744,-0.054623,2.937837\H,0,-5.343437,-0
 .981741,3.351821\H,0,-6.855083,-0.219685,2.809512\H,0,-5.643038,0.7384
 35,3.690576\C,0,4.197577,-1.510218,-0.150743\H,0,4.008698,-2.063976,0.
 787307\H,0,4.140851,-2.245253,-0.969579\C,0,5.589168,-0.886365,-0.1533
 01\H,0,6.327161,-1.667485,0.128448\H,0,5.829688,-0.571336,-1.18099\N,0
 ,5.673113,0.288559,0.69852\C,0,6.873671,1.057145,0.437661\H,0,6.869135
 ,1.980259,1.037144\H,0,7.803937,0.499677,0.682055\H,0,6.920546,1.34256
 3,-0.624243\C,0,5.535275,-0.024333,2.107887\H,0,6.335343,-0.702817,2.4
 76052\H,0,5.577028,0.9011,2.70152\H,0,4.56561,-0.50178,2.31307\\Versio
 n=ES64L-G16RevA.03\State=1-A\HF=-1090.8641414\RMSD=1.467e-09\Dipole=6.
 3908826,-1.2841145,0.7721852\Quadrupole=18.0058496,-10.9357113,-7.0701
 383,-1.8864589,-2.0950733,1.263158\PG=C01 [X(C20H25N3O2)]\\@


 The mind is not a vessel to be filled but a fire to be kindled.
                                  -- Plutarch
 Job cpu time:       0 days  8 hours 44 minutes 48.2 seconds.
 Elapsed time:       0 days  0 hours 21 minutes 57.7 seconds.
 File lengths (MBytes):  RWF=   1796 Int=      0 D2E=      0 Chk=     68 Scr=      2
 Normal termination of Gaussian 16 at Thu Jun  2 14:59:04 2022.
