951506 Entering Gaussian System, Link 0=g16
 Initial command:
 /home/xiaogang_liu/g16/l1.exe "/home/xiaogang_liu/g16/scratch/Gau-7025.inp" -scrdir="/home/xiaogang_liu/g16/scratch/"
 Entering Link 1 = /home/xiaogang_liu/g16/l1.exe PID=      7026.
  
 Copyright (c) 1988,1990,1992,1993,1995,1998,2003,2009,2016,
            Gaussian, Inc.  All Rights Reserved.
  
 This is part of the Gaussian(R) 16 program.  It is based on
 the Gaussian(R) 09 system (copyright 2009, Gaussian, Inc.),
 the Gaussian(R) 03 system (copyright 2003, Gaussian, Inc.),
 the Gaussian(R) 98 system (copyright 1998, Gaussian, Inc.),
 the Gaussian(R) 94 system (copyright 1995, Gaussian, Inc.),
 the Gaussian 92(TM) system (copyright 1992, Gaussian, Inc.),
 the Gaussian 90(TM) system (copyright 1990, Gaussian, Inc.),
 the Gaussian 88(TM) system (copyright 1988, Gaussian, Inc.),
 the Gaussian 86(TM) system (copyright 1986, Carnegie Mellon
 University), and the Gaussian 82(TM) system (copyright 1983,
 Carnegie Mellon University). Gaussian is a federally registered
 trademark of Gaussian, Inc.
  
 This software contains proprietary and confidential information,
 including trade secrets, belonging to Gaussian, Inc.
  
 This software is provided under written license and may be
 used, copied, transmitted, or stored only in accord with that
 written license.
  
 The following legend is applicable only to US Government
 contracts under FAR:
  
                    RESTRICTED RIGHTS LEGEND
  
 Use, reproduction and disclosure by the US Government is
 subject to restrictions as set forth in subparagraphs (a)
 and (c) of the Commercial Computer Software - Restricted
 Rights clause in FAR 52.227-19.
  
 Gaussian, Inc.
 340 Quinnipiac St., Bldg. 40, Wallingford CT 06492
  
  
 ---------------------------------------------------------------
 Warning -- This program may not be used in any manner that
 competes with the business of Gaussian, Inc. or will provide
 assistance to any competitor of Gaussian, Inc.  The licensee
 of this program is prohibited from giving any competitor of
 Gaussian, Inc. access to this program.  By using this program,
 the user acknowledges that Gaussian, Inc. is engaged in the
 business of creating and licensing software in the field of
 computational chemistry and represents and warrants to the
 licensee that it is not a competitor of Gaussian, Inc. and that
 it will not use this program in any manner prohibited above.
 ---------------------------------------------------------------
  

 Cite this work as:
 Gaussian 16, Revision A.03,
 M. J. Frisch, G. W. Trucks, H. B. Schlegel, G. E. Scuseria, 
 M. A. Robb, J. R. Cheeseman, G. Scalmani, V. Barone, 
 G. A. Petersson, H. Nakatsuji, X. Li, M. Caricato, A. V. Marenich, 
 J. Bloino, B. G. Janesko, R. Gomperts, B. Mennucci, H. P. Hratchian, 
 J. V. Ortiz, A. F. Izmaylov, J. L. Sonnenberg, D. Williams-Young, 
 F. Ding, F. Lipparini, F. Egidi, J. Goings, B. Peng, A. Petrone, 
 T. Henderson, D. Ranasinghe, V. G. Zakrzewski, J. Gao, N. Rega, 
 G. Zheng, W. Liang, M. Hada, M. Ehara, K. Toyota, R. Fukuda, 
 J. Hasegawa, M. Ishida, T. Nakajima, Y. Honda, O. Kitao, H. Nakai, 
 T. Vreven, K. Throssell, J. A. Montgomery, Jr., J. E. Peralta, 
 F. Ogliaro, M. J. Bearpark, J. J. Heyd, E. N. Brothers, K. N. Kudin, 
 V. N. Staroverov, T. A. Keith, R. Kobayashi, J. Normand, 
 K. Raghavachari, A. P. Rendell, J. C. Burant, S. S. Iyengar, 
 J. Tomasi, M. Cossi, J. M. Millam, M. Klene, C. Adamo, R. Cammi, 
 J. W. Ochterski, R. L. Martin, K. Morokuma, O. Farkas, 
 J. B. Foresman, and D. J. Fox, Gaussian, Inc., Wallingford CT, 2016.
 
 ******************************************
 Gaussian 16:  ES64L-G16RevA.03 25-Dec-2016
                31-May-2022 
 ******************************************
 %nprocshared=16
 Will use up to   16 processors via shared memory.
 %mem=16GB
 %chk=0102_wB97XD_EtOH.chk
 -----------------------------------------------------
 # opt freq wB97XD/def2SVP scrf=(SMD, solvent=Ethanol)
 -----------------------------------------------------
 1/18=20,19=15,26=3,38=1/1,3;
 2/9=110,12=2,17=6,18=5,40=1/2;
 3/5=43,7=101,11=2,25=1,30=1,70=32201,71=1,72=4,74=-58/1,2,3;
 4//1;
 5/5=2,38=5,53=4/2;
 6/7=2,8=2,9=2,10=2,28=1/1;
 7//1,2,3,16;
 1/18=20,19=15,26=3/3(2);
 2/9=110/2;
 99//99;
 2/9=110/2;
 3/5=43,7=101,11=2,25=1,30=1,70=32205,71=1,72=4,74=-58/1,2,3;
 4/5=5,16=3,69=1/1;
 5/5=2,38=5,53=4/2;
 7//1,2,3,16;
 1/18=20,19=15,26=3/3(-5);
 2/9=110/2;
 6/7=2,8=2,9=2,10=2,19=2,28=1/1;
 99/9=1/99;
 ----------------
 0102_wB97XD_EtOH
 ----------------
 Symbolic Z-matrix:
 Charge =  0 Multiplicity = 1
 O                    -2.85262  -2.43164  -0.73703 
 C                     0.99272   0.48398  -0.49068 
 C                     1.89221  -0.65503  -0.42602 
 O                    -3.55139   2.05613  -0.7587 
 N                     3.22012  -0.46283  -0.33229 
 H                     3.58668   0.45892  -0.10834 
 C                    -0.9224   -1.0707   -0.61473 
 N                    -3.19938  -0.18915  -0.73793 
 C                    -0.40714   0.24996  -0.57849 
 C                     1.34139  -1.94768  -0.47461 
 H                     1.99517  -2.81836  -0.43017 
 C                    -1.29582   1.35284  -0.63118 
 C                    -0.81127   2.64924  -0.60513 
 H                    -1.51467   3.48286  -0.64659 
 C                     0.56994   2.88411  -0.5306 
 H                     0.94851   3.9077   -0.51824 
 C                    -2.75771   1.12864  -0.7135 
 C                     1.45127   1.8214   -0.47565 
 H                     2.51952   2.04179  -0.42747 
 C                    -2.36104  -1.31133  -0.69952 
 C                    -4.64366  -0.43732  -0.79936 
 H                    -4.80467  -1.2683   -1.49732 
 H                    -5.10454   0.46169  -1.22385 
 C                    -0.03455  -2.13877  -0.56738 
 H                    -0.43262  -3.15557  -0.59698 
 C                    -5.263    -0.76909   0.55586 
 H                    -6.3347   -0.96621   0.38192 
 H                    -4.83235  -1.71356   0.92814 
 C                    -5.10996   0.31731   1.61714 
 H                    -5.53381   1.26281   1.2386 
 H                    -4.03746   0.51132   1.79216 
 C                    -5.77274  -0.05462   2.93784 
 H                    -5.34344  -0.98174   3.35182 
 H                    -6.85508  -0.21969   2.80951 
 H                    -5.64304   0.73844   3.69058 
 C                     4.19758  -1.51022  -0.15074 
 H                     4.0087   -2.06398   0.78731 
 H                     4.14085  -2.24525  -0.96958 
 C                     5.58917  -0.88637  -0.1533 
 H                     6.32716  -1.66749   0.12845 
 H                     5.82969  -0.57134  -1.18099 
 N                     5.67311   0.28856   0.69852 
 C                     6.87367   1.05715   0.43766 
 H                     6.86913   1.98026   1.03714 
 H                     7.80394   0.49968   0.68206 
 H                     6.92055   1.34256  -0.62424 
 C                     5.53528  -0.02433   2.10789 
 H                     6.33534  -0.70282   2.47605 
 H                     5.57703   0.9011    2.70152 
 H                     4.56561  -0.50178   2.31307 
 

 GradGradGradGradGradGradGradGradGradGradGradGradGradGradGradGradGradGrad
 Berny optimization.
 Initialization pass.
                           ----------------------------
                           !    Initial Parameters    !
                           ! (Angstroms and Degrees)  !
 --------------------------                            --------------------------
 ! Name  Definition              Value          Derivative Info.                !
 --------------------------------------------------------------------------------
 ! R1    R(1,20)                 1.224          estimate D2E/DX2                !
 ! R2    R(2,3)                  1.4528         estimate D2E/DX2                !
 ! R3    R(2,9)                  1.422          estimate D2E/DX2                !
 ! R4    R(2,18)                 1.4139         estimate D2E/DX2                !
 ! R5    R(3,5)                  1.345          estimate D2E/DX2                !
 ! R6    R(3,10)                 1.406          estimate D2E/DX2                !
 ! R7    R(4,17)                 1.2216         estimate D2E/DX2                !
 ! R8    R(5,6)                  1.0169         estimate D2E/DX2                !
 ! R9    R(5,36)                 1.4441         estimate D2E/DX2                !
 ! R10   R(7,9)                  1.4181         estimate D2E/DX2                !
 ! R11   R(7,20)                 1.4611         estimate D2E/DX2                !
 ! R12   R(7,24)                 1.3897         estimate D2E/DX2                !
 ! R13   R(8,17)                 1.39           estimate D2E/DX2                !
 ! R14   R(8,20)                 1.4013         estimate D2E/DX2                !
 ! R15   R(8,21)                 1.4667         estimate D2E/DX2                !
 ! R16   R(9,12)                 1.4174         estimate D2E/DX2                !
 ! R17   R(10,11)                1.0897         estimate D2E/DX2                !
 ! R18   R(10,24)                1.3922         estimate D2E/DX2                !
 ! R19   R(12,13)                1.3842         estimate D2E/DX2                !
 ! R20   R(12,17)                1.4813         estimate D2E/DX2                !
 ! R21   R(13,14)                1.0915         estimate D2E/DX2                !
 ! R22   R(13,15)                1.403          estimate D2E/DX2                !
 ! R23   R(15,16)                1.0914         estimate D2E/DX2                !
 ! R24   R(15,18)                1.3817         estimate D2E/DX2                !
 ! R25   R(18,19)                1.0918         estimate D2E/DX2                !
 ! R26   R(21,22)                1.0971         estimate D2E/DX2                !
 ! R27   R(21,23)                1.0958         estimate D2E/DX2                !
 ! R28   R(21,26)                1.5265         estimate D2E/DX2                !
 ! R29   R(24,25)                1.0923         estimate D2E/DX2                !
 ! R30   R(26,27)                1.1035         estimate D2E/DX2                !
 ! R31   R(26,28)                1.1028         estimate D2E/DX2                !
 ! R32   R(26,29)                1.5264         estimate D2E/DX2                !
 ! R33   R(29,30)                1.1031         estimate D2E/DX2                !
 ! R34   R(29,31)                1.1039         estimate D2E/DX2                !
 ! R35   R(29,32)                1.5238         estimate D2E/DX2                !
 ! R36   R(32,33)                1.1024         estimate D2E/DX2                !
 ! R37   R(32,34)                1.1023         estimate D2E/DX2                !
 ! R38   R(32,35)                1.1011         estimate D2E/DX2                !
 ! R39   R(36,37)                1.1056         estimate D2E/DX2                !
 ! R40   R(36,38)                1.1018         estimate D2E/DX2                !
 ! R41   R(36,39)                1.525          estimate D2E/DX2                !
 ! R42   R(39,40)                1.1109         estimate D2E/DX2                !
 ! R43   R(39,41)                1.1015         estimate D2E/DX2                !
 ! R44   R(39,42)                1.4536         estimate D2E/DX2                !
 ! R45   R(42,43)                1.4492         estimate D2E/DX2                !
 ! R46   R(42,47)                1.4502         estimate D2E/DX2                !
 ! R47   R(43,44)                1.1007         estimate D2E/DX2                !
 ! R48   R(43,45)                1.1117         estimate D2E/DX2                !
 ! R49   R(43,46)                1.1006         estimate D2E/DX2                !
 ! R50   R(47,48)                1.1118         estimate D2E/DX2                !
 ! R51   R(47,49)                1.1003         estimate D2E/DX2                !
 ! R52   R(47,50)                1.1001         estimate D2E/DX2                !
 ! A1    A(3,2,9)              118.8961         estimate D2E/DX2                !
 ! A2    A(3,2,18)             122.7061         estimate D2E/DX2                !
 ! A3    A(9,2,18)             118.3973         estimate D2E/DX2                !
 ! A4    A(2,3,5)              120.1547         estimate D2E/DX2                !
 ! A5    A(2,3,10)             118.4725         estimate D2E/DX2                !
 ! A6    A(5,3,10)             121.3709         estimate D2E/DX2                !
 ! A7    A(3,5,6)              120.0492         estimate D2E/DX2                !
 ! A8    A(3,5,36)             124.986          estimate D2E/DX2                !
 ! A9    A(6,5,36)             112.6898         estimate D2E/DX2                !
 ! A10   A(9,7,20)             120.8392         estimate D2E/DX2                !
 ! A11   A(9,7,24)             118.8653         estimate D2E/DX2                !
 ! A12   A(20,7,24)            120.2954         estimate D2E/DX2                !
 ! A13   A(17,8,20)            124.6543         estimate D2E/DX2                !
 ! A14   A(17,8,21)            118.2953         estimate D2E/DX2                !
 ! A15   A(20,8,21)            117.0491         estimate D2E/DX2                !
 ! A16   A(2,9,7)              120.8332         estimate D2E/DX2                !
 ! A17   A(2,9,12)             119.4377         estimate D2E/DX2                !
 ! A18   A(7,9,12)             119.7291         estimate D2E/DX2                !
 ! A19   A(3,10,11)            119.8782         estimate D2E/DX2                !
 ! A20   A(3,10,24)            121.0428         estimate D2E/DX2                !
 ! A21   A(11,10,24)           119.0766         estimate D2E/DX2                !
 ! A22   A(9,12,13)            120.5684         estimate D2E/DX2                !
 ! A23   A(9,12,17)            120.2046         estimate D2E/DX2                !
 ! A24   A(13,12,17)           119.227          estimate D2E/DX2                !
 ! A25   A(12,13,14)           119.272          estimate D2E/DX2                !
 ! A26   A(12,13,15)           120.1583         estimate D2E/DX2                !
 ! A27   A(14,13,15)           120.5694         estimate D2E/DX2                !
 ! A28   A(13,15,16)           119.9384         estimate D2E/DX2                !
 ! A29   A(13,15,18)           120.0857         estimate D2E/DX2                !
 ! A30   A(16,15,18)           119.9757         estimate D2E/DX2                !
 ! A31   A(4,17,8)             120.8441         estimate D2E/DX2                !
 ! A32   A(4,17,12)            121.8948         estimate D2E/DX2                !
 ! A33   A(8,17,12)            117.2611         estimate D2E/DX2                !
 ! A34   A(2,18,15)            121.3479         estimate D2E/DX2                !
 ! A35   A(2,18,19)            120.5785         estimate D2E/DX2                !
 ! A36   A(15,18,19)           118.0721         estimate D2E/DX2                !
 ! A37   A(1,20,7)             123.2279         estimate D2E/DX2                !
 ! A38   A(1,20,8)             119.4638         estimate D2E/DX2                !
 ! A39   A(7,20,8)             117.3083         estimate D2E/DX2                !
 ! A40   A(8,21,22)            107.417          estimate D2E/DX2                !
 ! A41   A(8,21,23)            106.9505         estimate D2E/DX2                !
 ! A42   A(8,21,26)            113.5223         estimate D2E/DX2                !
 ! A43   A(22,21,23)           108.2542         estimate D2E/DX2                !
 ! A44   A(22,21,26)           109.9158         estimate D2E/DX2                !
 ! A45   A(23,21,26)           110.583          estimate D2E/DX2                !
 ! A46   A(7,24,10)            121.8823         estimate D2E/DX2                !
 ! A47   A(7,24,25)            118.7946         estimate D2E/DX2                !
 ! A48   A(10,24,25)           119.3217         estimate D2E/DX2                !
 ! A49   A(21,26,27)           107.0337         estimate D2E/DX2                !
 ! A50   A(21,26,28)           109.1109         estimate D2E/DX2                !
 ! A51   A(21,26,29)           114.9536         estimate D2E/DX2                !
 ! A52   A(27,26,28)           106.2302         estimate D2E/DX2                !
 ! A53   A(27,26,29)           109.5184         estimate D2E/DX2                !
 ! A54   A(28,26,29)           109.6144         estimate D2E/DX2                !
 ! A55   A(26,29,30)           109.4456         estimate D2E/DX2                !
 ! A56   A(26,29,31)           109.4353         estimate D2E/DX2                !
 ! A57   A(26,29,32)           112.6611         estimate D2E/DX2                !
 ! A58   A(30,29,31)           106.0855         estimate D2E/DX2                !
 ! A59   A(30,29,32)           109.8464         estimate D2E/DX2                !
 ! A60   A(31,29,32)           109.1525         estimate D2E/DX2                !
 ! A61   A(29,32,33)           111.1849         estimate D2E/DX2                !
 ! A62   A(29,32,34)           111.2676         estimate D2E/DX2                !
 ! A63   A(29,32,35)           111.4375         estimate D2E/DX2                !
 ! A64   A(33,32,34)           107.4669         estimate D2E/DX2                !
 ! A65   A(33,32,35)           107.6463         estimate D2E/DX2                !
 ! A66   A(34,32,35)           107.6434         estimate D2E/DX2                !
 ! A67   A(5,36,37)            110.7516         estimate D2E/DX2                !
 ! A68   A(5,36,38)            110.8289         estimate D2E/DX2                !
 ! A69   A(5,36,39)            108.707          estimate D2E/DX2                !
 ! A70   A(37,36,38)           106.7159         estimate D2E/DX2                !
 ! A71   A(37,36,39)           111.2365         estimate D2E/DX2                !
 ! A72   A(38,36,39)           108.5803         estimate D2E/DX2                !
 ! A73   A(36,39,40)           108.5493         estimate D2E/DX2                !
 ! A74   A(36,39,41)           108.5311         estimate D2E/DX2                !
 ! A75   A(36,39,42)           112.4794         estimate D2E/DX2                !
 ! A76   A(40,39,41)           107.0177         estimate D2E/DX2                !
 ! A77   A(40,39,42)           112.4159         estimate D2E/DX2                !
 ! A78   A(41,39,42)           107.6354         estimate D2E/DX2                !
 ! A79   A(39,42,43)           111.7791         estimate D2E/DX2                !
 ! A80   A(39,42,47)           112.9296         estimate D2E/DX2                !
 ! A81   A(43,42,47)           111.5982         estimate D2E/DX2                !
 ! A82   A(42,43,44)           110.0806         estimate D2E/DX2                !
 ! A83   A(42,43,45)           112.8121         estimate D2E/DX2                !
 ! A84   A(42,43,46)           110.2734         estimate D2E/DX2                !
 ! A85   A(44,43,45)           107.714          estimate D2E/DX2                !
 ! A86   A(44,43,46)           107.9494         estimate D2E/DX2                !
 ! A87   A(45,43,46)           107.8491         estimate D2E/DX2                !
 ! A88   A(42,47,48)           112.6495         estimate D2E/DX2                !
 ! A89   A(42,47,49)           109.8315         estimate D2E/DX2                !
 ! A90   A(42,47,50)           111.0176         estimate D2E/DX2                !
 ! A91   A(48,47,49)           107.8984         estimate D2E/DX2                !
 ! A92   A(48,47,50)           107.9194         estimate D2E/DX2                !
 ! A93   A(49,47,50)           107.3285         estimate D2E/DX2                !
 ! D1    D(9,2,3,5)           -179.4962         estimate D2E/DX2                !
 ! D2    D(9,2,3,10)             1.004          estimate D2E/DX2                !
 ! D3    D(18,2,3,5)             0.7768         estimate D2E/DX2                !
 ! D4    D(18,2,3,10)         -178.723          estimate D2E/DX2                !
 ! D5    D(3,2,9,7)             -0.554          estimate D2E/DX2                !
 ! D6    D(3,2,9,12)           179.488          estimate D2E/DX2                !
 ! D7    D(18,2,9,7)           179.1849         estimate D2E/DX2                !
 ! D8    D(18,2,9,12)           -0.7731         estimate D2E/DX2                !
 ! D9    D(3,2,18,15)         -179.6169         estimate D2E/DX2                !
 ! D10   D(3,2,18,19)            0.8464         estimate D2E/DX2                !
 ! D11   D(9,2,18,15)            0.6548         estimate D2E/DX2                !
 ! D12   D(9,2,18,19)         -178.8819         estimate D2E/DX2                !
 ! D13   D(2,3,5,6)             13.0243         estimate D2E/DX2                !
 ! D14   D(2,3,5,36)           174.608          estimate D2E/DX2                !
 ! D15   D(10,3,5,6)          -167.4907         estimate D2E/DX2                !
 ! D16   D(10,3,5,36)           -5.907          estimate D2E/DX2                !
 ! D17   D(2,3,10,11)          179.857          estimate D2E/DX2                !
 ! D18   D(2,3,10,24)           -0.7123         estimate D2E/DX2                !
 ! D19   D(5,3,10,11)            0.3636         estimate D2E/DX2                !
 ! D20   D(5,3,10,24)          179.7943         estimate D2E/DX2                !
 ! D21   D(3,5,36,37)          -59.8963         estimate D2E/DX2                !
 ! D22   D(3,5,36,38)           58.3483         estimate D2E/DX2                !
 ! D23   D(3,5,36,39)          177.6069         estimate D2E/DX2                !
 ! D24   D(6,5,36,37)          102.8623         estimate D2E/DX2                !
 ! D25   D(6,5,36,38)         -138.8931         estimate D2E/DX2                !
 ! D26   D(6,5,36,39)          -19.6345         estimate D2E/DX2                !
 ! D27   D(20,7,9,2)           179.7514         estimate D2E/DX2                !
 ! D28   D(20,7,9,12)           -0.2907         estimate D2E/DX2                !
 ! D29   D(24,7,9,2)            -0.2108         estimate D2E/DX2                !
 ! D30   D(24,7,9,12)          179.7471         estimate D2E/DX2                !
 ! D31   D(9,7,20,1)           179.7989         estimate D2E/DX2                !
 ! D32   D(9,7,20,8)            -0.2297         estimate D2E/DX2                !
 ! D33   D(24,7,20,1)           -0.2395         estimate D2E/DX2                !
 ! D34   D(24,7,20,8)          179.732          estimate D2E/DX2                !
 ! D35   D(9,7,24,10)            0.5348         estimate D2E/DX2                !
 ! D36   D(9,7,24,25)         -179.9028         estimate D2E/DX2                !
 ! D37   D(20,7,24,10)        -179.4275         estimate D2E/DX2                !
 ! D38   D(20,7,24,25)           0.1348         estimate D2E/DX2                !
 ! D39   D(20,8,17,4)          179.5342         estimate D2E/DX2                !
 ! D40   D(20,8,17,12)          -0.4587         estimate D2E/DX2                !
 ! D41   D(21,8,17,4)           -0.8885         estimate D2E/DX2                !
 ! D42   D(21,8,17,12)         179.1187         estimate D2E/DX2                !
 ! D43   D(17,8,20,1)         -179.4051         estimate D2E/DX2                !
 ! D44   D(17,8,20,7)            0.6223         estimate D2E/DX2                !
 ! D45   D(21,8,20,1)            1.0127         estimate D2E/DX2                !
 ! D46   D(21,8,20,7)         -178.9598         estimate D2E/DX2                !
 ! D47   D(17,8,21,22)         138.9924         estimate D2E/DX2                !
 ! D48   D(17,8,21,23)          22.9645         estimate D2E/DX2                !
 ! D49   D(17,8,21,26)         -99.2781         estimate D2E/DX2                !
 ! D50   D(20,8,21,22)         -41.398          estimate D2E/DX2                !
 ! D51   D(20,8,21,23)        -157.4258         estimate D2E/DX2                !
 ! D52   D(20,8,21,26)          80.3316         estimate D2E/DX2                !
 ! D53   D(2,9,12,13)            0.3513         estimate D2E/DX2                !
 ! D54   D(2,9,12,17)         -179.5833         estimate D2E/DX2                !
 ! D55   D(7,9,12,13)         -179.6072         estimate D2E/DX2                !
 ! D56   D(7,9,12,17)            0.4583         estimate D2E/DX2                !
 ! D57   D(3,10,24,7)           -0.0626         estimate D2E/DX2                !
 ! D58   D(3,10,24,25)        -179.6227         estimate D2E/DX2                !
 ! D59   D(11,10,24,7)         179.3725         estimate D2E/DX2                !
 ! D60   D(11,10,24,25)         -0.1876         estimate D2E/DX2                !
 ! D61   D(9,12,13,14)        -179.9887         estimate D2E/DX2                !
 ! D62   D(9,12,13,15)           0.2169         estimate D2E/DX2                !
 ! D63   D(17,12,13,14)         -0.0536         estimate D2E/DX2                !
 ! D64   D(17,12,13,15)       -179.8479         estimate D2E/DX2                !
 ! D65   D(9,12,17,4)          179.9045         estimate D2E/DX2                !
 ! D66   D(9,12,17,8)           -0.1028         estimate D2E/DX2                !
 ! D67   D(13,12,17,4)          -0.0309         estimate D2E/DX2                !
 ! D68   D(13,12,17,8)         179.9618         estimate D2E/DX2                !
 ! D69   D(12,13,15,16)        179.5164         estimate D2E/DX2                !
 ! D70   D(12,13,15,18)         -0.349          estimate D2E/DX2                !
 ! D71   D(14,13,15,16)         -0.2752         estimate D2E/DX2                !
 ! D72   D(14,13,15,18)        179.8594         estimate D2E/DX2                !
 ! D73   D(13,15,18,2)          -0.0963         estimate D2E/DX2                !
 ! D74   D(13,15,18,19)        179.4516         estimate D2E/DX2                !
 ! D75   D(16,15,18,2)        -179.9617         estimate D2E/DX2                !
 ! D76   D(16,15,18,19)         -0.4138         estimate D2E/DX2                !
 ! D77   D(8,21,26,27)        -178.2102         estimate D2E/DX2                !
 ! D78   D(8,21,26,28)         -63.6578         estimate D2E/DX2                !
 ! D79   D(8,21,26,29)          59.9207         estimate D2E/DX2                !
 ! D80   D(22,21,26,27)        -57.8842         estimate D2E/DX2                !
 ! D81   D(22,21,26,28)         56.6683         estimate D2E/DX2                !
 ! D82   D(22,21,26,29)       -179.7532         estimate D2E/DX2                !
 ! D83   D(23,21,26,27)         61.5837         estimate D2E/DX2                !
 ! D84   D(23,21,26,28)        176.1362         estimate D2E/DX2                !
 ! D85   D(23,21,26,29)        -60.2854         estimate D2E/DX2                !
 ! D86   D(21,26,29,30)         56.2093         estimate D2E/DX2                !
 ! D87   D(21,26,29,31)        -59.6498         estimate D2E/DX2                !
 ! D88   D(21,26,29,32)        178.7269         estimate D2E/DX2                !
 ! D89   D(27,26,29,30)        -64.3042         estimate D2E/DX2                !
 ! D90   D(27,26,29,31)        179.8367         estimate D2E/DX2                !
 ! D91   D(27,26,29,32)         58.2134         estimate D2E/DX2                !
 ! D92   D(28,26,29,30)        179.5199         estimate D2E/DX2                !
 ! D93   D(28,26,29,31)         63.6608         estimate D2E/DX2                !
 ! D94   D(28,26,29,32)        -57.9625         estimate D2E/DX2                !
 ! D95   D(26,29,32,33)         59.4266         estimate D2E/DX2                !
 ! D96   D(26,29,32,34)        -60.3282         estimate D2E/DX2                !
 ! D97   D(26,29,32,35)        179.5229         estimate D2E/DX2                !
 ! D98   D(30,29,32,33)       -178.2812         estimate D2E/DX2                !
 ! D99   D(30,29,32,34)         61.964          estimate D2E/DX2                !
 ! D100  D(30,29,32,35)        -58.1849         estimate D2E/DX2                !
 ! D101  D(31,29,32,33)        -62.3569         estimate D2E/DX2                !
 ! D102  D(31,29,32,34)        177.8883         estimate D2E/DX2                !
 ! D103  D(31,29,32,35)         57.7394         estimate D2E/DX2                !
 ! D104  D(5,36,39,40)         172.1102         estimate D2E/DX2                !
 ! D105  D(5,36,39,41)         -71.9095         estimate D2E/DX2                !
 ! D106  D(5,36,39,42)          47.0703         estimate D2E/DX2                !
 ! D107  D(37,36,39,40)         49.9072         estimate D2E/DX2                !
 ! D108  D(37,36,39,41)        165.8874         estimate D2E/DX2                !
 ! D109  D(37,36,39,42)        -75.1327         estimate D2E/DX2                !
 ! D110  D(38,36,39,40)        -67.2338         estimate D2E/DX2                !
 ! D111  D(38,36,39,41)         48.7464         estimate D2E/DX2                !
 ! D112  D(38,36,39,42)        167.7263         estimate D2E/DX2                !
 ! D113  D(36,39,42,43)       -165.6657         estimate D2E/DX2                !
 ! D114  D(36,39,42,47)         67.5062         estimate D2E/DX2                !
 ! D115  D(40,39,42,43)         71.439          estimate D2E/DX2                !
 ! D116  D(40,39,42,47)        -55.3891         estimate D2E/DX2                !
 ! D117  D(41,39,42,43)        -46.1633         estimate D2E/DX2                !
 ! D118  D(41,39,42,47)       -172.9914         estimate D2E/DX2                !
 ! D119  D(39,42,43,44)        175.4146         estimate D2E/DX2                !
 ! D120  D(39,42,43,45)        -64.2403         estimate D2E/DX2                !
 ! D121  D(39,42,43,46)         56.4134         estimate D2E/DX2                !
 ! D122  D(47,42,43,44)        -57.0389         estimate D2E/DX2                !
 ! D123  D(47,42,43,45)         63.3062         estimate D2E/DX2                !
 ! D124  D(47,42,43,46)       -176.0401         estimate D2E/DX2                !
 ! D125  D(39,42,47,48)         61.3371         estimate D2E/DX2                !
 ! D126  D(39,42,47,49)       -178.3651         estimate D2E/DX2                !
 ! D127  D(39,42,47,50)        -59.826          estimate D2E/DX2                !
 ! D128  D(43,42,47,48)        -65.5869         estimate D2E/DX2                !
 ! D129  D(43,42,47,49)         54.7109         estimate D2E/DX2                !
 ! D130  D(43,42,47,50)        173.25           estimate D2E/DX2                !
 --------------------------------------------------------------------------------
 Trust Radius=3.00D-01 FncErr=1.00D-07 GrdErr=1.00D-06 EigMax=2.50D+02 EigMin=1.00D-04
 Number of steps in this run=    285 maximum allowed number of steps=    300.
 GradGradGradGradGradGradGradGradGradGradGradGradGradGradGradGradGradGrad

                          Input orientation:                          
 ---------------------------------------------------------------------
 Center     Atomic      Atomic             Coordinates (Angstroms)
 Number     Number       Type             X           Y           Z
 ---------------------------------------------------------------------
      1          8           0       -2.852622   -2.431643   -0.737025
      2          6           0        0.992723    0.483981   -0.490679
      3          6           0        1.892205   -0.655028   -0.426022
      4          8           0       -3.551387    2.056129   -0.758698
      5          7           0        3.220124   -0.462830   -0.332286
      6          1           0        3.586684    0.458916   -0.108336
      7          6           0       -0.922400   -1.070699   -0.614727
      8          7           0       -3.199379   -0.189146   -0.737929
      9          6           0       -0.407138    0.249958   -0.578491
     10          6           0        1.341394   -1.947683   -0.474608
     11          1           0        1.995167   -2.818360   -0.430172
     12          6           0       -1.295824    1.352844   -0.631176
     13          6           0       -0.811267    2.649243   -0.605128
     14          1           0       -1.514673    3.482857   -0.646586
     15          6           0        0.569939    2.884112   -0.530596
     16          1           0        0.948508    3.907697   -0.518240
     17          6           0       -2.757709    1.128643   -0.713500
     18          6           0        1.451266    1.821395   -0.475646
     19          1           0        2.519523    2.041793   -0.427472
     20          6           0       -2.361038   -1.311328   -0.699518
     21          6           0       -4.643659   -0.437323   -0.799356
     22          1           0       -4.804674   -1.268299   -1.497320
     23          1           0       -5.104535    0.461690   -1.223845
     24          6           0       -0.034552   -2.138773   -0.567376
     25          1           0       -0.432615   -3.155573   -0.596981
     26          6           0       -5.263004   -0.769089    0.555855
     27          1           0       -6.334701   -0.966212    0.381924
     28          1           0       -4.832345   -1.713562    0.928136
     29          6           0       -5.109955    0.317308    1.617142
     30          1           0       -5.533805    1.262806    1.238603
     31          1           0       -4.037460    0.511318    1.792163
     32          6           0       -5.772744   -0.054623    2.937837
     33          1           0       -5.343437   -0.981741    3.351821
     34          1           0       -6.855083   -0.219685    2.809512
     35          1           0       -5.643038    0.738435    3.690576
     36          6           0        4.197577   -1.510218   -0.150743
     37          1           0        4.008698   -2.063976    0.787307
     38          1           0        4.140851   -2.245253   -0.969579
     39          6           0        5.589168   -0.886365   -0.153301
     40          1           0        6.327161   -1.667485    0.128448
     41          1           0        5.829688   -0.571336   -1.180990
     42          7           0        5.673113    0.288559    0.698520
     43          6           0        6.873671    1.057145    0.437661
     44          1           0        6.869135    1.980259    1.037144
     45          1           0        7.803937    0.499677    0.682055
     46          1           0        6.920546    1.342563   -0.624243
     47          6           0        5.535275   -0.024333    2.107887
     48          1           0        6.335343   -0.702817    2.476052
     49          1           0        5.577028    0.901100    2.701520
     50          1           0        4.565610   -0.501780    2.313070
 ---------------------------------------------------------------------
                    Distance matrix (angstroms):
                    1          2          3          4          5
     1  O    0.000000
     2  C    4.832000   0.000000
     3  C    5.076068   1.452787   0.000000
     4  O    4.541898   4.815851   6.090463   0.000000
     5  N    6.396740   2.425460   1.345026   7.237427   0.000000
     6  H    7.086271   2.622108   2.052573   7.343440   1.016925
     7  C    2.364928   2.469841   2.851384   4.087708   4.196401
     8  N    2.269148   4.252993   5.122359   2.272796   6.438126
     9  C    3.632700   1.422002   2.475727   3.630569   3.704823
    10  C    4.229994   2.456587   1.405955   6.328548   2.398889
    11  H    4.872860   3.451668   2.165785   7.391403   2.656807
    12  C    4.093552   2.451960   3.773217   2.366101   4.876453
    13  C    5.477219   2.820610   4.273061   2.807779   5.100152
    14  H    6.064618   3.912109   5.364472   2.489242   6.171348
    15  C    6.325645   2.437410   3.779528   4.209859   4.273737
    16  H    7.394842   3.424112   4.660207   4.871876   4.929130
    17  C    3.561629   3.811952   4.988570   1.221556   6.197790
    18  C    6.056410   1.413918   2.515862   5.016149   2.892593
    19  H    6.997671   2.182176   2.768822   6.079956   2.602506
    20  C    1.223996   3.809785   4.312262   3.572142   5.657223
    21  C    2.681233   5.719518   6.550137   2.722501   7.877683
    22  H    2.396231   6.139513   6.809697   3.628789   8.148832
    23  H    3.698578   6.141220   7.130074   2.273954   8.423156
    24  C    2.838322   2.817803   2.435954   5.477402   3.668374
    25  H    2.529846   3.910146   3.418587   6.075749   4.545705
    26  C    3.200870   6.465256   7.223165   3.555213   8.534990
    27  H    3.940103   7.520348   8.272339   4.264083   9.594695
    28  H    2.684717   6.385425   6.940736   4.323983   8.245923
    29  C    4.265488   6.458589   7.358682   3.331253   8.590640
    30  H    4.974013   6.796510   7.848228   2.923791   9.059624
    31  H    4.057296   5.524025   6.437518   3.021523   7.624616
    32  C    5.261364   7.603707   8.392108   4.801466   9.577683
    33  H    5.002503   7.553812   8.169049   5.416315   9.336835
    34  H    5.787087   8.542509   9.336662   5.368972  10.556506
    35  H    6.118780   7.847354   8.698736   5.089927   9.807247
    36  C    7.134287   3.789918   2.474241   8.551894   1.444089
    37  H    7.038216   4.149872   2.817241   8.747587   2.106895
    38  H    6.999821   4.193897   2.807255   8.815718   2.104973
    39  C    8.601886   4.808220   3.714220   9.621565   2.413252
    40  H    9.252102   5.785184   4.582722  10.594246   3.364097
    41  H    8.890464   4.998645   4.010081   9.751229   2.746251
    42  N    9.063578   4.833056   4.055887   9.504693   2.764833
    43  C   10.399630   5.981294   5.337836  10.540924   4.031321
    44  H   10.822436   6.253424   5.818541  10.574407   4.599924
    45  H   11.143100   6.911453   6.124521  11.551697   4.792353
    46  H   10.477221   5.991167   5.414229  10.497077   4.127688
    47  C    9.178534   5.257919   4.482235   9.752592   3.392145
    48  H    9.885919   6.225237   5.307145  10.762101   4.201065
    49  H    9.694832   5.601783   5.077497   9.830318   4.076675
    50  H    8.249704   4.647392   3.830562   9.047889   2.968124
                    6          7          8          9         10
     6  H    0.000000
     7  C    4.788318   0.000000
     8  N    6.845949   2.444780   0.000000
     9  C    4.026825   1.418077   2.831050   0.000000
    10  C    3.311676   2.431768   4.876516   2.810299   0.000000
    11  H    3.657464   3.405962   5.830162   3.899698   1.089712
    12  C    4.991127   2.452198   2.452071   1.417355   4.227637
    13  C    4.938249   3.721614   3.711761   2.433228   5.077668
    14  H    5.954643   4.592023   4.041062   3.418027   6.138197
    15  C    3.893665   4.227846   4.867819   2.809936   4.893314
    16  H    4.361431   5.319214   5.834154   3.901341   5.868708
    17  C    6.408282   2.866221   1.390049   2.513066   5.130643
    18  C    2.559546   3.744041   5.073418   2.435910   3.770679
    19  H    1.935505   4.644298   6.146488   3.434942   4.160064
    20  C    6.233671   1.461086   1.401279   2.503994   3.763447
    21  C    8.307785   3.779289   1.466734   4.297586   6.181222
    22  H    8.679138   3.986235   2.078032   4.742117   6.267508
    23  H    8.762514   4.495497   2.071068   4.746246   6.922170
    24  C    4.480185   1.389712   3.721057   2.417639   1.392246
    25  H    5.427529   2.141706   4.058884   3.405676   2.149670
    26  C    8.959136   4.505782   2.503749   5.089659   6.787416
    27  H   10.035199   5.504292   3.418793   6.126783   7.785844
    28  H    8.756368   4.252219   2.786789   5.070285   6.335421
    29  C    8.867291   4.944029   3.074598   5.190552   7.150210
    30  H    9.254394   5.490458   3.385910   5.532667   7.778862
    31  H    7.857621   4.242581   2.755793   4.343679   6.333799
    32  C    9.856053   6.097455   4.489049   6.422387   8.114149
    33  H    9.684794   5.940285   4.685216   6.428957   7.762832
    34  H   10.863003   6.902635   5.094059   7.298981   8.997425
    35  H    9.984870   6.640258   5.142328   6.773344   8.564244
    36  C    2.062154   5.159711   7.536908   4.948190   2.907584
    37  H    2.710213   5.221880   7.602480   5.169072   2.953043
    38  H    2.891603   5.209799   7.626284   5.202233   2.858409
    39  C    2.412829   6.530499   8.835523   6.117818   4.390127
    40  H    3.476760   7.311949   9.679414   7.037552   5.029917
    41  H    2.691296   6.794167   9.048007   6.319456   4.747430
    42  N    2.243485   6.860976   9.000706   6.213027   5.014060
    43  C    3.385303   8.149476  10.217710   7.395559   6.361393
    44  H    3.794877   8.529070  10.451420   7.651690   6.947665
    45  H    4.290874   8.960842  11.115925   8.311022   7.006561
    46  H    3.487353   8.205835  10.235816   7.408835   6.478815
    47  C    2.990348   7.085836   9.188036   6.527184   5.287456
    48  H    3.947634   7.897030  10.074942   7.463180   5.932589
    49  H    3.471640   7.558310   9.489139   6.855122   6.011984
    50  H    2.782883   6.246112   8.348736   5.801246   4.500817
                   11         12         13         14         15
    11  H    0.000000
    12  C    5.316951   0.000000
    13  C    6.148281   1.384241   0.000000
    14  H    7.216034   2.141282   1.091518   0.000000
    15  C    5.878737   2.415775   1.403014   2.171994   0.000000
    16  H    6.807576   3.402507   2.165194   2.502843   1.091418
    17  C    6.184573   1.481267   2.472368   2.663070   3.766745
    18  C    4.671747   2.791099   2.412707   3.403891   1.381711
    19  H    4.888358   3.882399   3.390386   4.289454   2.126268
    20  C    4.617382   2.870046   4.254036   4.868608   5.120633
    21  C    7.062552   3.800129   4.924616   5.018137   6.187549
    22  H    7.055447   4.464597   5.664843   5.841347   6.860287
    23  H    7.860942   3.956222   4.858019   4.727345   6.208734
    24  C    2.144860   3.712986   4.850753   5.813756   5.059262
    25  H    2.456759   4.590438   5.817158   6.726222   6.122689
    26  C    7.606103   4.652973   5.731565   5.794385   6.967746
    27  H    8.571852   5.638677   6.674886   6.639632   7.958124
    28  H    7.048439   4.933688   6.128135   6.363133   7.242319
    29  C    8.031604   4.546962   5.371697   5.298228   6.592606
    30  H    8.725030   4.632997   5.255846   4.963465   6.558536
    31  H    7.240036   3.754638   4.552587   4.598043   5.679215
    32  C    8.906299   5.895899   6.669314   6.594924   7.803577
    33  H    8.457644   6.139847   7.027237   7.111914   8.061389
    34  H    9.776277   6.724325   7.511207   7.360259   8.713256
    35  H    9.379421   6.160626   6.741682   6.586822   7.811742
    36  C    2.576805   6.213324   6.526569   7.603056   5.710883
    37  H    2.470963   6.467202   6.883703   7.958080   6.168104
    38  H    2.285470   6.528266   6.972258   8.056086   6.265341
    39  C    4.089756   7.255724   7.325998   8.354519   6.288999
    40  H    4.516939   8.234641   8.374332   9.413876   7.368648
    41  H    4.507371   7.401195   7.403109   8.406052   6.326776
    42  N    4.945117   7.174042   7.022785   7.979794   5.855767
    43  C    6.290666   8.244422   7.917099   8.799090   6.634182
    44  H    6.995379   8.357242   7.882460   8.682222   6.553978
    45  H    6.781462   9.233532   8.972135   9.874267   7.712767
    46  H    6.450605   8.216379   7.841474   8.702544   6.535698
    47  C    5.175007   7.487523   7.401828   8.342018   6.330498
    48  H    5.635494   8.492074   8.473725   9.428334   7.426027
    49  H    6.039173   7.651603   7.402718   8.256362   6.280912
    50  H    4.415778   6.816496   6.881543   7.848996   5.959538
                   16         17         18         19         20
    16  H    0.000000
    17  C    4.636519   0.000000
    18  C    2.146447   4.272230   0.000000
    19  H    2.440886   5.363286   1.091819   0.000000
    20  C    6.182571   2.472044   4.939406   5.927673   0.000000
    21  C    7.087352   2.452841   6.508049   7.589169   2.446265
    22  H    7.800554   3.248041   7.051724   8.108338   2.570933
    23  H    7.000869   2.492563   6.736997   7.826698   3.308366
    24  C    6.126061   4.255930   4.230721   4.901021   2.472785
    25  H    7.197464   4.875874   5.322963   5.979671   2.670312
    26  C    7.849133   3.389565   7.270215   8.332810   3.208020
    27  H    8.809677   4.287568   8.314293   9.386187   4.132629
    28  H    8.191997   3.882939   7.345086   8.366022   2.986370
    29  C    7.359057   3.409284   7.049231   8.084753   3.946633
    30  H    7.218194   3.396383   7.214006   8.260673   4.522049
    31  H    6.460126   2.880486   6.081560   7.089652   3.512962
    32  C    8.533445   4.880862   8.207169   9.191407   5.142898
    33  H    8.858473   5.259900   8.287042   9.233144   5.041496
    34  H    9.434259   5.569387   9.162625  10.172295   5.805292
    35  H    8.438414   5.279514   8.298154   9.234959   5.852006
    36  C    6.328136   7.460314   4.329830   3.938176   6.584538
    37  H    6.835941   7.630826   4.819919   4.533285   6.584122
    38  H    6.946478   7.683676   4.900557   4.615338   6.574170
    39  C    6.682210   8.604908   4.955613   4.251117   7.980271
    40  H    7.773723   9.542645   6.025908   5.344707   8.734826
    41  H    6.657844   8.766519   5.039172   4.284090   8.238167
    42  N    6.074583   8.589430   4.642439   3.779791   8.310339
    43  C    6.644317   9.700194   5.551638   4.547152   9.601182
    44  H    6.417793   9.821717   5.627351   4.589990   9.952218
    45  H    7.749336  10.671998   6.591179   5.615532  10.417063
    46  H    6.500491   9.681030   5.492211   4.460566   9.653839
    47  C    6.587551   8.835336   5.173054   4.448784   8.478776
    48  H    7.696793   9.808725   6.240062   5.524836   9.278016
    49  H    6.389810   9.010104   5.288028   4.521074   8.914863
    50  H    6.367357   8.090081   4.782595   4.262254   7.596677
                   21         22         23         24         25
    21  C    0.000000
    22  H    1.097087   0.000000
    23  H    1.095820   1.776954   0.000000
    24  C    4.918599   4.937265   5.735685   0.000000
    25  H    5.016247   4.846371   5.941749   1.092343   0.000000
    26  C    1.526517   2.162130   2.169622   5.520362   5.509718
    27  H    2.129500   2.442089   2.476026   6.478267   6.370728
    28  H    2.156065   2.466143   3.071943   5.043429   4.874731
    29  C    2.574172   3.508165   2.844659   6.046831   6.232235
    30  H    2.799299   3.797815   2.624826   6.713724   6.993824
    31  H    2.825485   3.817899   3.199596   5.349176   5.670009
    32  C    3.922742   4.699020   4.246490   7.039677   7.115322
    33  H    4.244803   4.887387   4.803882   6.699484   6.665940
    34  H    4.238123   4.883909   4.449344   7.848944   7.840391
    35  H    4.747700   5.625309   4.951576   7.606812   7.790696
    36  C    8.929684   9.105620   9.569183   4.298788   4.934065
    37  H    8.945769   9.139374   9.668233   4.264813   4.778399
    38  H    8.970240   9.014176   9.636875   4.196081   4.678045
    39  C   10.263029  10.487336  10.831371   5.776349   6.450428
    40  H   11.078493  11.257008  11.706654   6.416983   6.959542
    41  H   10.481155  10.661870  10.982996   6.101040   6.799690
    42  N   10.450183  10.818019  10.949117   6.330235   7.128835
    43  C   11.679578  12.063813  12.107543   7.677730   8.497017
    44  H   11.906379  12.379598  12.279532   8.197671   9.075389
    45  H   12.570409  12.917139  13.048469   8.364473   9.101515
    46  H   11.701688  12.044071  12.072201   7.777938   8.619916
    47  C   10.594023  11.020867  11.159848   6.530763   7.262003
    48  H   11.460247  11.840922  12.079575   7.204164   7.827183
    49  H   10.886228  11.406853  11.388475   7.170519   7.965709
    50  H    9.721213  10.144400  10.341651   5.669057   6.363432
                   26         27         28         29         30
    26  C    0.000000
    27  H    1.103469   0.000000
    28  H    1.102765   1.764640   0.000000
    29  C    1.526438   2.161756   2.162459   0.000000
    30  H    2.160573   2.518701   3.073630   1.103135   0.000000
    31  H    2.160985   3.073953   2.515646   1.103865   1.763579
    32  C    2.538530   2.771188   2.770438   1.523764   2.163356
    33  H    2.805195   3.130996   2.582833   2.179714   3.088676
    34  H    2.813455   2.592544   3.140496   2.180729   2.532057
    35  H    3.499076   3.785683   3.781612   2.181892   2.509794
    36  C    9.515837  10.559761   9.096418   9.648597  10.213704
    37  H    9.364548  10.409386   8.849105   9.460918  10.115854
    38  H    9.640461  10.639535   9.187070   9.941592  10.525280
    39  C   10.875950  11.936142  10.510076  10.911211  11.413889
    40  H   11.632786  12.683800  11.188217  11.703129  12.267908
    41  H   11.229584  12.270737  10.928497  11.326739  11.762121
    42  N   10.988068  12.077346  10.697002  10.822165  11.262143
    43  C   12.273874  13.362566  12.039443  12.064237  12.435002
    44  H   12.449070  13.544456  12.271138  12.107865  12.425307
    45  H   13.129000  14.217595  12.831002  12.948987  13.371143
    46  H   12.421377  13.492383  12.242558  12.280387  12.593150
    47  C   10.934637  12.031725  10.570376  10.662011  11.177518
    48  H   11.756411  12.844640  11.319669  11.522727  12.094281
    49  H   11.175854  12.278301  10.878253  10.757709  11.212563
    50  H    9.988038  11.079793   9.576430   9.735080  10.308561
                   31         32         33         34         35
    31  H    0.000000
    32  C    2.155010   0.000000
    33  H    2.523358   1.102377   0.000000
    34  H    3.083563   1.102348   1.777611   0.000000
    35  H    2.496685   1.101082   1.778629   1.778573   0.000000
    36  C    8.699272  10.538756  10.177337  11.514768  10.800457
    37  H    8.507793  10.214641   9.757581  11.203234  10.461285
    38  H    9.061494  10.878701  10.498699  11.802331  11.240281
    39  C    9.920197  11.804235  11.481151  12.809454  11.982396
    40  H   10.721031  12.526041  12.126963  13.529811  12.718603
    41  H   10.362065  12.322668  12.064557  13.302300  12.532801
    42  N    9.774503  11.667903  11.402545  12.714963  11.713670
    43  C   11.008423  12.939039  12.724273  13.990520  12.936423
    44  H   11.030941  12.944902  12.778031  14.011966  12.850576
    45  H   11.893324  13.773963  13.497248  14.830051  13.781485
    46  H   11.252017  13.257457  13.100258  14.282830  13.297604
    47  C    9.592907  11.338476  10.991377  12.411745  11.315538
    48  H   10.465986  12.134215  11.714891  13.203483  12.125753
    49  H    9.665259  11.392391  11.100655  12.482997  11.264749
    50  H    8.678164  10.366863   9.974897  11.434958  10.375555
                   36         37         38         39         40
    36  C    0.000000
    37  H    1.105559   0.000000
    38  H    1.101811   1.771151   0.000000
    39  C    1.525033   2.183895   2.147209   0.000000
    40  H    2.153557   2.442657   2.513848   1.110930   0.000000
    41  H    2.146321   3.068904   2.387229   1.101471   1.778665
    42  N    2.476702   2.883155   3.398615   1.453648   2.139829
    43  C    3.754870   4.251084   4.511592   2.403417   2.796050
    44  H    4.553211   4.959875   5.415295   3.357530   3.798092
    45  H    4.211777   4.581183   4.866286   2.743015   2.680287
    46  H    3.972043   4.698493   4.551745   2.638650   3.158962
    47  C    3.016405   2.869584   4.043229   2.420532   2.691693
    48  H    3.481665   3.180863   4.366609   2.739336   2.538089
    49  H    3.981550   3.862065   5.043720   3.368261   3.712281
    50  H    2.687521   2.253566   3.741110   2.697881   3.038833
                   41         42         43         44         45
    41  H    0.000000
    42  N    2.072798   0.000000
    43  C    2.522277   1.449176   0.000000
    44  H    3.537118   2.099282   1.100700   0.000000
    45  H    2.918161   2.141320   1.111708   1.786635   0.000000
    46  H    2.272212   2.101598   1.100591   1.780311   1.788086
    47  C    3.347029   1.450247   2.398031   2.635159   2.730277
    48  H    3.694175   2.140326   2.746325   3.091001   2.611740
    49  H    4.160023   2.096771   2.613559   2.367334   3.032903
    50  H    3.716340   2.111391   3.357760   3.618664   3.761634
                   46         47         48         49         50
    46  H    0.000000
    47  C    3.354387   0.000000
    48  H    3.760036   1.111753   0.000000
    49  H    3.613949   1.100259   1.788415   0.000000
    50  H    4.192271   1.100139   1.788556   1.772550   0.000000
 Stoichiometry    C20H25N3O2
 Framework group  C1[X(C20H25N3O2)]
 Deg. of freedom   144
 Full point group                 C1      NOp   1
 Largest Abelian subgroup         C1      NOp   1
 Largest concise Abelian subgroup C1      NOp   1
                         Standard orientation:                         
 ---------------------------------------------------------------------
 Center     Atomic      Atomic             Coordinates (Angstroms)
 Number     Number       Type             X           Y           Z
 ---------------------------------------------------------------------
      1          8           0       -2.852622   -2.431643   -0.737025
      2          6           0        0.992723    0.483981   -0.490679
      3          6           0        1.892205   -0.655028   -0.426022
      4          8           0       -3.551387    2.056129   -0.758698
      5          7           0        3.220124   -0.462830   -0.332286
      6          1           0        3.586684    0.458916   -0.108336
      7          6           0       -0.922400   -1.070699   -0.614727
      8          7           0       -3.199379   -0.189146   -0.737929
      9          6           0       -0.407138    0.249958   -0.578491
     10          6           0        1.341394   -1.947683   -0.474608
     11          1           0        1.995167   -2.818360   -0.430172
     12          6           0       -1.295824    1.352844   -0.631176
     13          6           0       -0.811267    2.649243   -0.605128
     14          1           0       -1.514673    3.482857   -0.646586
     15          6           0        0.569939    2.884112   -0.530596
     16          1           0        0.948508    3.907697   -0.518240
     17          6           0       -2.757709    1.128643   -0.713500
     18          6           0        1.451266    1.821395   -0.475646
     19          1           0        2.519523    2.041793   -0.427472
     20          6           0       -2.361038   -1.311328   -0.699518
     21          6           0       -4.643659   -0.437323   -0.799356
     22          1           0       -4.804674   -1.268299   -1.497320
     23          1           0       -5.104535    0.461690   -1.223845
     24          6           0       -0.034552   -2.138773   -0.567376
     25          1           0       -0.432615   -3.155573   -0.596981
     26          6           0       -5.263004   -0.769089    0.555855
     27          1           0       -6.334701   -0.966212    0.381924
     28          1           0       -4.832345   -1.713562    0.928136
     29          6           0       -5.109955    0.317308    1.617142
     30          1           0       -5.533805    1.262806    1.238603
     31          1           0       -4.037460    0.511318    1.792163
     32          6           0       -5.772744   -0.054623    2.937837
     33          1           0       -5.343437   -0.981741    3.351821
     34          1           0       -6.855083   -0.219685    2.809512
     35          1           0       -5.643038    0.738435    3.690576
     36          6           0        4.197577   -1.510218   -0.150743
     37          1           0        4.008698   -2.063976    0.787307
     38          1           0        4.140851   -2.245253   -0.969579
     39          6           0        5.589168   -0.886365   -0.153301
     40          1           0        6.327161   -1.667485    0.128448
     41          1           0        5.829688   -0.571336   -1.180990
     42          7           0        5.673113    0.288559    0.698520
     43          6           0        6.873671    1.057145    0.437661
     44          1           0        6.869135    1.980259    1.037144
     45          1           0        7.803937    0.499677    0.682055
     46          1           0        6.920546    1.342563   -0.624243
     47          6           0        5.535275   -0.024333    2.107887
     48          1           0        6.335343   -0.702817    2.476052
     49          1           0        5.577028    0.901100    2.701520
     50          1           0        4.565610   -0.501780    2.313070
 ---------------------------------------------------------------------
 Rotational constants (GHZ):           0.4756585           0.0971058           0.0908098
 Standard basis: def2SVP (5D, 7F)
 There are   500 symmetry adapted cartesian basis functions of A   symmetry.
 There are   475 symmetry adapted basis functions of A   symmetry.
   475 basis functions,   800 primitive gaussians,   500 cartesian basis functions
    91 alpha electrons       91 beta electrons
       nuclear repulsion energy      2158.6298262330 Hartrees.
 NAtoms=   50 NActive=   50 NUniq=   50 SFac= 1.00D+00 NAtFMM=   60 NAOKFM=F Big=F
 Integral buffers will be    131072 words long.
 Raffenetti 2 integral format.
 Two-electron integral symmetry is turned on.
 Nuclear repulsion after empirical dispersion term =     2158.5901546940 Hartrees.
 ------------------------------------------------------------------------------
 Polarizable Continuum Model (PCM)
 =================================
 Model                : PCM.
 Atomic radii         : SMD-Coulomb.
 Polarization charges : Total charges.
 Charge compensation  : None.
 Solution method      : On-the-fly selection.
 Cavity type          : VdW (van der Waals Surface) (Alpha=1.000).
 Cavity algorithm     : GePol (No added spheres)
                        Default sphere list used, NSphG=   50.
                        Lebedev-Laikov grids with approx.  5.0 points / Ang**2.
                        Smoothing algorithm: York/Karplus (Gamma=1.0000).
                        Polarization charges: spherical gaussians, with
                                              point-specific exponents (IZeta= 3).
                        Self-potential: point-specific (ISelfS= 7).
                        Self-field    : sphere-specific E.n sum rule (ISelfD= 2).
 1st derivatives      : Analytical E(r).r(x)/FMM algorithm (CHGder, D1EAlg=3).
                        Cavity 1st derivative terms included.
 Solvent              : Ethanol, Eps=  24.852000 Eps(inf)=   1.852593
 ------------------------------------------------------------------------------
 ------------------------------------------------------------------------------
 Atomic radii for non-electrostatic terms: SMD-CDS.
 ------------------------------------------------------------------------------
 Nuclear repulsion after PCM non-electrostatic terms =     2158.5870851350 Hartrees.
 One-electron integrals computed using PRISM.
   1 Symmetry operations used in ECPInt.
 ECPInt:  NShTT=   25425 NPrTT=   90925 LenC2=   20852 LenP2D=   50402.
 LDataN:  DoStor=T MaxTD1= 4 Len=   56
 NBasis=   475 RedAO= T EigKep=  2.09D-04  NBF=   475
 NBsUse=   475 1.00D-06 EigRej= -1.00D+00 NBFU=   475
 ExpMin= 1.22D-01 ExpMax= 2.27D+03 ExpMxC= 3.41D+02 IAcc=3 IRadAn=         5 AccDes= 0.00D+00
 Harris functional with IExCor= 4639 and IRadAn=       5 diagonalized for initial guess.
 HarFok:  IExCor= 4639 AccDes= 0.00D+00 IRadAn=         5 IDoV= 1 UseB2=F ITyADJ=14
 ICtDFT=  3500011 ScaDFX=  1.000000  1.000000  1.000000  1.000000
 FoFCou: FMM=F IPFlag=           0 FMFlag=      100000 FMFlg1=           0
         NFxFlg=           0 DoJE=T BraDBF=F KetDBF=T FulRan=T
         wScrn=  0.000000 ICntrl=       500 IOpCl=  0 I1Cent=   200000004 NGrid=           0
         NMat0=    1 NMatS0=      1 NMatT0=    0 NMatD0=    1 NMtDS0=    0 NMtDT0=    0
 Petite list used in FoFCou.
 Requested convergence on RMS density matrix=1.00D-08 within 128 cycles.
 Requested convergence on MAX density matrix=1.00D-06.
 Requested convergence on             energy=1.00D-06.
 No special actions if energy rises.
 Inv3:  Mode=1 IEnd=    36498432.
 Iteration    1 A*A^-1 deviation from unit magnitude is 5.22D-15 for   2526.
 Iteration    1 A*A^-1 deviation from orthogonality  is 3.96D-15 for   2607   2547.
 Iteration    1 A^-1*A deviation from unit magnitude is 4.11D-15 for   2526.
 Iteration    1 A^-1*A deviation from orthogonality  is 7.31D-13 for   1530   1476.
 Error on total polarization charges =  0.06110
 SCF Done:  E(RwB97XD) =  -1090.86414138     A.U. after   15 cycles
            NFock= 15  Conv=0.48D-08     -V/T= 2.0110
 SMD-CDS (non-electrostatic) energy       (kcal/mol) =      -1.93
 (included in total energy above)

 **********************************************************************

            Population analysis using the SCF density.

 **********************************************************************

 Orbital symmetries:
       Occupied  (A) (A) (A) (A) (A) (A) (A) (A) (A) (A) (A) (A)
                 (A) (A) (A) (A) (A) (A) (A) (A) (A) (A) (A) (A)
                 (A) (A) (A) (A) (A) (A) (A) (A) (A) (A) (A) (A)
                 (A) (A) (A) (A) (A) (A) (A) (A) (A) (A) (A) (A)
                 (A) (A) (A) (A) (A) (A) (A) (A) (A) (A) (A) (A)
                 (A) (A) (A) (A) (A) (A) (A) (A) (A) (A) (A) (A)
                 (A) (A) (A) (A) (A) (A) (A) (A) (A) (A) (A) (A)
                 (A) (A) (A) (A) (A) (A) (A)
       Virtual   (A) (A) (A) (A) (A) (A) (A) (A) (A) (A) (A) (A)
                 (A) (A) (A) (A) (A) (A) (A) (A) (A) (A) (A) (A)
                 (A) (A) (A) (A) (A) (A) (A) (A) (A) (A) (A) (A)
                 (A) (A) (A) (A) (A) (A) (A) (A) (A) (A) (A) (A)
                 (A) (A) (A) (A) (A) (A) (A) (A) (A) (A) (A) (A)
                 (A) (A) (A) (A) (A) (A) (A) (A) (A) (A) (A) (A)
                 (A) (A) (A) (A) (A) (A) (A) (A) (A) (A) (A) (A)
                 (A) (A) (A) (A) (A) (A) (A) (A) (A) (A) (A) (A)
                 (A) (A) (A) (A) (A) (A) (A) (A) (A) (A) (A) (A)
                 (A) (A) (A) (A) (A) (A) (A) (A) (A) (A) (A) (A)
                 (A) (A) (A) (A) (A) (A) (A) (A) (A) (A) (A) (A)
                 (A) (A) (A) (A) (A) (A) (A) (A) (A) (A) (A) (A)
                 (A) (A) (A) (A) (A) (A) (A) (A) (A) (A) (A) (A)
                 (A) (A) (A) (A) (A) (A) (A) (A) (A) (A) (A) (A)
                 (A) (A) (A) (A) (A) (A) (A) (A) (A) (A) (A) (A)
                 (A) (A) (A) (A) (A) (A) (A) (A) (A) (A) (A) (A)
                 (A) (A) (A) (A) (A) (A) (A) (A) (A) (A) (A) (A)
                 (A) (A) (A) (A) (A) (A) (A) (A) (A) (A) (A) (A)
                 (A) (A) (A) (A) (A) (A) (A) (A) (A) (A) (A) (A)
                 (A) (A) (A) (A) (A) (A) (A) (A) (A) (A) (A) (A)
                 (A) (A) (A) (A) (A) (A) (A) (A) (A) (A) (A) (A)
                 (A) (A) (A) (A) (A) (A) (A) (A) (A) (A) (A) (A)
                 (A) (A) (A) (A) (A) (A) (A) (A) (A) (A) (A) (A)
                 (A) (A) (A) (A) (A) (A) (A) (A) (A) (A) (A) (A)
                 (A) (A) (A) (A) (A) (A) (A) (A) (A) (A) (A) (A)
                 (A) (A) (A) (A) (A) (A) (A) (A) (A) (A) (A) (A)
                 (A) (A) (A) (A) (A) (A) (A) (A) (A) (A) (A) (A)
                 (A) (A) (A) (A) (A) (A) (A) (A) (A) (A) (A) (A)
                 (A) (A) (A) (A) (A) (A) (A) (A) (A) (A) (A) (A)
                 (A) (A) (A) (A) (A) (A) (A) (A) (A) (A) (A) (A)
                 (A) (A) (A) (A) (A) (A) (A) (A) (A) (A) (A) (A)
                 (A) (A) (A) (A) (A) (A) (A) (A) (A) (A) (A) (A)
 The electronic state is 1-A.
 Alpha  occ. eigenvalues --  -19.24291 -19.23770 -14.49463 -14.46817 -14.43851
 Alpha  occ. eigenvalues --  -10.42110 -10.41600 -10.36693 -10.32856 -10.32812
 Alpha  occ. eigenvalues --  -10.32402 -10.32278 -10.32185 -10.31995 -10.31971
 Alpha  occ. eigenvalues --  -10.31968 -10.31817 -10.30975 -10.30940 -10.30922
 Alpha  occ. eigenvalues --  -10.30194 -10.29766 -10.28661 -10.28414 -10.27939
 Alpha  occ. eigenvalues --   -1.15796  -1.13610  -1.05393  -1.03366  -1.01602
 Alpha  occ. eigenvalues --   -0.98100  -0.92846  -0.89982  -0.87688  -0.85145
 Alpha  occ. eigenvalues --   -0.84689  -0.82471  -0.81154  -0.79137  -0.76121
 Alpha  occ. eigenvalues --   -0.75237  -0.74250  -0.72189  -0.71160  -0.70116
 Alpha  occ. eigenvalues --   -0.66737  -0.66238  -0.65234  -0.62817  -0.60686
 Alpha  occ. eigenvalues --   -0.59956  -0.58620  -0.57592  -0.57492  -0.55994
 Alpha  occ. eigenvalues --   -0.55808  -0.55109  -0.54095  -0.53527  -0.53146
 Alpha  occ. eigenvalues --   -0.52611  -0.52249  -0.51962  -0.51037  -0.50514
 Alpha  occ. eigenvalues --   -0.49557  -0.49389  -0.48562  -0.48470  -0.47973
 Alpha  occ. eigenvalues --   -0.47067  -0.46484  -0.46075  -0.44707  -0.44532
 Alpha  occ. eigenvalues --   -0.44130  -0.43762  -0.43148  -0.42461  -0.42302
 Alpha  occ. eigenvalues --   -0.42076  -0.40298  -0.40122  -0.39574  -0.36870
 Alpha  occ. eigenvalues --   -0.35376  -0.35320  -0.34061  -0.33713  -0.30028
 Alpha  occ. eigenvalues --   -0.27070
 Alpha virt. eigenvalues --   -0.01959   0.04157   0.05008   0.08736   0.13624
 Alpha virt. eigenvalues --    0.15081   0.15494   0.16545   0.16960   0.17694
 Alpha virt. eigenvalues --    0.18008   0.18242   0.18409   0.18746   0.19151
 Alpha virt. eigenvalues --    0.19450   0.20216   0.20934   0.21549   0.22312
 Alpha virt. eigenvalues --    0.22574   0.22676   0.23025   0.23837   0.23939
 Alpha virt. eigenvalues --    0.24466   0.24820   0.25003   0.25451   0.26544
 Alpha virt. eigenvalues --    0.26823   0.27310   0.28001   0.28598   0.29934
 Alpha virt. eigenvalues --    0.30408   0.30706   0.31127   0.31775   0.32349
 Alpha virt. eigenvalues --    0.32695   0.33212   0.33430   0.33765   0.34408
 Alpha virt. eigenvalues --    0.35240   0.35422   0.36022   0.36635   0.37840
 Alpha virt. eigenvalues --    0.38710   0.39229   0.41811   0.42502   0.43401
 Alpha virt. eigenvalues --    0.44178   0.45082   0.47435   0.49481   0.49669
 Alpha virt. eigenvalues --    0.50360   0.50835   0.51052   0.52326   0.52362
 Alpha virt. eigenvalues --    0.52627   0.53164   0.53286   0.53770   0.54284
 Alpha virt. eigenvalues --    0.54472   0.54871   0.55407   0.55918   0.56356
 Alpha virt. eigenvalues --    0.57326   0.58453   0.59202   0.60009   0.60716
 Alpha virt. eigenvalues --    0.62364   0.62922   0.63192   0.63888   0.65418
 Alpha virt. eigenvalues --    0.65988   0.67310   0.68394   0.69011   0.69316
 Alpha virt. eigenvalues --    0.69877   0.70564   0.70686   0.70922   0.71936
 Alpha virt. eigenvalues --    0.72194   0.72427   0.73092   0.73495   0.73666
 Alpha virt. eigenvalues --    0.74151   0.74362   0.74694   0.74791   0.75125
 Alpha virt. eigenvalues --    0.75678   0.75744   0.76315   0.76442   0.76844
 Alpha virt. eigenvalues --    0.77268   0.77457   0.77672   0.77967   0.78261
 Alpha virt. eigenvalues --    0.78623   0.78991   0.79203   0.79551   0.79769
 Alpha virt. eigenvalues --    0.80311   0.80674   0.81089   0.81774   0.81912
 Alpha virt. eigenvalues --    0.82574   0.82768   0.83248   0.83307   0.84210
 Alpha virt. eigenvalues --    0.84442   0.85160   0.86403   0.87374   0.87453
 Alpha virt. eigenvalues --    0.88891   0.90145   0.91027   0.91858   0.92542
 Alpha virt. eigenvalues --    0.93798   0.94529   0.94916   0.97564   0.98086
 Alpha virt. eigenvalues --    0.98805   0.99293   0.99797   1.01338   1.04494
 Alpha virt. eigenvalues --    1.06364   1.07457   1.09318   1.10318   1.11594
 Alpha virt. eigenvalues --    1.12806   1.13987   1.16083   1.17031   1.17957
 Alpha virt. eigenvalues --    1.18243   1.19493   1.20567   1.20920   1.22822
 Alpha virt. eigenvalues --    1.24042   1.24890   1.26175   1.27045   1.28029
 Alpha virt. eigenvalues --    1.28372   1.28973   1.29904   1.30711   1.30951
 Alpha virt. eigenvalues --    1.32119   1.32761   1.33126   1.33524   1.33984
 Alpha virt. eigenvalues --    1.36044   1.36271   1.38092   1.39886   1.41008
 Alpha virt. eigenvalues --    1.41127   1.42413   1.43402   1.43780   1.45132
 Alpha virt. eigenvalues --    1.47609   1.48415   1.49291   1.51365   1.52199
 Alpha virt. eigenvalues --    1.53095   1.55098   1.56581   1.57472   1.58444
 Alpha virt. eigenvalues --    1.58981   1.59766   1.60979   1.61548   1.62597
 Alpha virt. eigenvalues --    1.62653   1.63107   1.63557   1.66142   1.67971
 Alpha virt. eigenvalues --    1.70352   1.74698   1.75089   1.76344   1.76575
 Alpha virt. eigenvalues --    1.78579   1.79300   1.79719   1.79943   1.81134
 Alpha virt. eigenvalues --    1.81450   1.82223   1.82768   1.83215   1.84122
 Alpha virt. eigenvalues --    1.84600   1.84917   1.85923   1.85995   1.86524
 Alpha virt. eigenvalues --    1.86822   1.87149   1.87353   1.88076   1.88673
 Alpha virt. eigenvalues --    1.89108   1.89441   1.89807   1.90204   1.91120
 Alpha virt. eigenvalues --    1.91567   1.91778   1.92735   1.93200   1.94575
 Alpha virt. eigenvalues --    1.94969   1.95432   1.95514   1.95756   1.96316
 Alpha virt. eigenvalues --    1.97279   1.97787   1.98179   1.99048   1.99804
 Alpha virt. eigenvalues --    2.00999   2.02000   2.02116   2.02679   2.03290
 Alpha virt. eigenvalues --    2.03374   2.03885   2.05055   2.06456   2.06649
 Alpha virt. eigenvalues --    2.07642   2.07691   2.09909   2.10814   2.11036
 Alpha virt. eigenvalues --    2.12645   2.13241   2.14630   2.15274   2.16033
 Alpha virt. eigenvalues --    2.17054   2.17823   2.18358   2.18838   2.20910
 Alpha virt. eigenvalues --    2.21930   2.22892   2.23439   2.24654   2.25833
 Alpha virt. eigenvalues --    2.26394   2.28584   2.29900   2.31407   2.31937
 Alpha virt. eigenvalues --    2.32635   2.33027   2.34665   2.34879   2.36355
 Alpha virt. eigenvalues --    2.36798   2.38508   2.39558   2.39985   2.41177
 Alpha virt. eigenvalues --    2.44256   2.44535   2.45666   2.45978   2.46815
 Alpha virt. eigenvalues --    2.47702   2.50516   2.50706   2.51580   2.52748
 Alpha virt. eigenvalues --    2.53333   2.53980   2.55049   2.56762   2.57016
 Alpha virt. eigenvalues --    2.57771   2.59088   2.60009   2.61718   2.62522
 Alpha virt. eigenvalues --    2.65346   2.65989   2.66689   2.68278   2.68908
 Alpha virt. eigenvalues --    2.69615   2.71244   2.71538   2.72623   2.73628
 Alpha virt. eigenvalues --    2.74618   2.75369   2.76524   2.78026   2.79213
 Alpha virt. eigenvalues --    2.79483   2.80433   2.81828   2.82263   2.83704
 Alpha virt. eigenvalues --    2.84058   2.85824   2.88427   2.89815   2.89923
 Alpha virt. eigenvalues --    2.92397   2.93475   2.93948   2.95971   2.96723
 Alpha virt. eigenvalues --    2.97368   2.98210   2.98452   2.99009   2.99556
 Alpha virt. eigenvalues --    3.01733   3.03361   3.03991   3.05668   3.07404
 Alpha virt. eigenvalues --    3.09720   3.11107   3.11506   3.12558   3.14229
 Alpha virt. eigenvalues --    3.16073   3.18064   3.18851   3.20033   3.21149
 Alpha virt. eigenvalues --    3.21682   3.22958   3.25298   3.25905   3.27881
 Alpha virt. eigenvalues --    3.32122   3.43829   3.48518   3.54035   3.61245
 Alpha virt. eigenvalues --    3.64658   3.71424   3.79143   3.80437
          Condensed to atoms (all electrons):
               1          2          3          4          5          6
     1  O    7.753442  -0.000051  -0.000035  -0.000022  -0.000000  -0.000000
     2  C   -0.000051   5.535924   0.203024  -0.000067  -0.112520  -0.030006
     3  C   -0.000035   0.203024   5.178529   0.000001   0.498226  -0.003701
     4  O   -0.000022  -0.000067   0.000001   7.744936   0.000000   0.000000
     5  N   -0.000000  -0.112520   0.498226   0.000000   6.346835   0.353465
     6  H   -0.000000  -0.030006  -0.003701   0.000000   0.353465   0.523256
     7  C   -0.143723  -0.020436  -0.155337   0.000191  -0.000399  -0.000163
     8  N   -0.109314  -0.001439  -0.000042  -0.104772  -0.000000  -0.000000
     9  C    0.000501   0.313837   0.007398   0.000608   0.003872   0.000675
    10  C    0.002063   0.006318   0.238146  -0.000000  -0.099313   0.009393
    11  H   -0.000021   0.014385  -0.073800   0.000000  -0.015588  -0.000087
    12  C    0.000095  -0.006785   0.027780  -0.137263  -0.000022   0.000006
    13  C    0.000008  -0.126738  -0.003123   0.017595  -0.000051   0.000029
    14  H    0.000000  -0.000917   0.000036   0.015597   0.000000   0.000000
    15  C   -0.000000   0.064003   0.017176   0.001797   0.001036  -0.000986
    16  H    0.000000   0.013468  -0.000332  -0.000012   0.000004   0.000031
    17  C   -0.000603   0.014930   0.000265   0.756636   0.000001   0.000000
    18  C    0.000001   0.277535  -0.123994  -0.000052  -0.001221   0.003544
    19  H   -0.000000  -0.055879  -0.022044  -0.000000  -0.001909   0.003497
    20  C    0.765135   0.012486  -0.001731  -0.000636   0.000011  -0.000001
    21  C    0.008132   0.000080  -0.000000   0.000796   0.000000   0.000000
    22  H    0.013214   0.000001   0.000000   0.000503   0.000000   0.000000
    23  H    0.000544   0.000001  -0.000000   0.019471   0.000000   0.000000
    24  C    0.019302  -0.116032   0.116447   0.000009   0.007183   0.000090
    25  H    0.014917  -0.001047   0.013940   0.000000  -0.000081   0.000005
    26  C   -0.010877  -0.000005  -0.000000  -0.005532   0.000000  -0.000000
    27  H    0.000053   0.000000   0.000000  -0.000077  -0.000000  -0.000000
    28  H    0.012199   0.000001   0.000000  -0.000042  -0.000000  -0.000000
    29  C    0.000098   0.000002  -0.000000   0.001884  -0.000000   0.000000
    30  H   -0.000012   0.000000  -0.000000   0.004501   0.000000   0.000000
    31  H    0.000018  -0.000007  -0.000000  -0.002402  -0.000000   0.000000
    32  C   -0.000003   0.000000  -0.000000   0.000128   0.000000   0.000000
    33  H   -0.000019  -0.000000  -0.000000  -0.000003   0.000000   0.000000
    34  H    0.000001   0.000000  -0.000000  -0.000003  -0.000000  -0.000000
    35  H   -0.000000  -0.000000   0.000000  -0.000003  -0.000000  -0.000000
    36  C    0.000000   0.008784  -0.043817   0.000000   0.328855  -0.055685
    37  H    0.000000  -0.000112  -0.006700  -0.000000  -0.037877   0.000648
    38  H    0.000000  -0.000753  -0.016187   0.000000  -0.016981   0.005862
    39  C    0.000000   0.000221   0.009732  -0.000000  -0.044647  -0.020225
    40  H   -0.000000   0.000030  -0.000386   0.000000   0.004345   0.003497
    41  H   -0.000000  -0.000057   0.000312  -0.000000  -0.001014  -0.002696
    42  N   -0.000000   0.000577  -0.001472  -0.000000  -0.016134   0.061236
    43  C    0.000000   0.000000   0.000036  -0.000000  -0.000046  -0.002009
    44  H    0.000000  -0.000003   0.000002   0.000000   0.000042  -0.000569
    45  H    0.000000   0.000001  -0.000005  -0.000000  -0.000058   0.000800
    46  H   -0.000000  -0.000007   0.000011   0.000000   0.000156  -0.001141
    47  C   -0.000000  -0.000043  -0.000107  -0.000000  -0.001755  -0.002008
    48  H    0.000000   0.000008  -0.000039  -0.000000   0.000087   0.001436
    49  H   -0.000000  -0.000012   0.000024   0.000000   0.000111  -0.001041
    50  H   -0.000000  -0.000230   0.000446   0.000000   0.002504  -0.003013
               7          8          9         10         11         12
     1  O   -0.143723  -0.109314   0.000501   0.002063  -0.000021   0.000095
     2  C   -0.020436  -0.001439   0.313837   0.006318   0.014385  -0.006785
     3  C   -0.155337  -0.000042   0.007398   0.238146  -0.073800   0.027780
     4  O    0.000191  -0.104772   0.000608  -0.000000   0.000000  -0.137263
     5  N   -0.000399  -0.000000   0.003872  -0.099313  -0.015588  -0.000022
     6  H   -0.000163  -0.000000   0.000675   0.009393  -0.000087   0.000006
     7  C    5.881919  -0.117231   0.280642   0.058270   0.015787  -0.067674
     8  N   -0.117231   7.038729  -0.016788   0.000078   0.000000  -0.113841
     9  C    0.280642  -0.016788   5.222310  -0.110217  -0.001723   0.302250
    10  C    0.058270   0.000078  -0.110217   5.373604   0.472858  -0.002945
    11  H    0.015787   0.000000  -0.001723   0.472858   0.627890   0.000014
    12  C   -0.067674  -0.113841   0.302250  -0.002945   0.000014   5.754145
    13  C    0.015191   0.009800   0.018670   0.000129   0.000000   0.309634
    14  H   -0.000416   0.001057   0.012572   0.000000   0.000000  -0.074644
    15  C   -0.003078   0.000026  -0.120961  -0.000326   0.000001   0.070021
    16  H    0.000036   0.000001  -0.000903   0.000003  -0.000000   0.013140
    17  C   -0.041426   0.319912  -0.059510  -0.000281   0.000001   0.198652
    18  C    0.023737  -0.000022   0.013416   0.015870  -0.000116  -0.145845
    19  H   -0.000069  -0.000000   0.012883  -0.000098   0.000009  -0.001419
    20  C    0.208569   0.301446  -0.066429   0.020462  -0.000380  -0.035095
    21  C    0.010407   0.225324  -0.000404  -0.000001  -0.000000   0.008407
    22  H    0.003266  -0.022736  -0.000153  -0.000003   0.000000  -0.000397
    23  H   -0.000260  -0.025234  -0.000257   0.000000   0.000000   0.004577
    24  C    0.255986   0.010715   0.023081   0.225316  -0.071217   0.015351
    25  H   -0.083825   0.001069   0.012234  -0.057719  -0.011487  -0.000504
    26  C   -0.001998  -0.032810   0.000208   0.000001  -0.000000  -0.001370
    27  H    0.000010   0.005103   0.000001   0.000000  -0.000000   0.000018
    28  H    0.000271  -0.010518  -0.000071  -0.000001  -0.000000   0.000085
    29  C    0.000100  -0.006887  -0.000004  -0.000000   0.000000  -0.000029
    30  H    0.000001  -0.001785  -0.000019   0.000000  -0.000000   0.000246
    31  H   -0.000207   0.005732   0.000242   0.000000  -0.000000   0.000110
    32  C   -0.000004  -0.000253  -0.000001   0.000000  -0.000000   0.000018
    33  H   -0.000000   0.000040   0.000000   0.000000   0.000000  -0.000001
    34  H   -0.000000  -0.000000   0.000000   0.000000   0.000000  -0.000000
    35  H    0.000000   0.000008  -0.000000  -0.000000   0.000000  -0.000001
    36  C    0.000050   0.000000  -0.000124  -0.002008   0.007648   0.000004
    37  H   -0.000057   0.000000  -0.000008   0.004928  -0.000900  -0.000000
    38  H   -0.000049   0.000000   0.000016   0.008775  -0.000423   0.000001
    39  C    0.000004   0.000000   0.000001   0.000560   0.000609  -0.000000
    40  H   -0.000000   0.000000   0.000000  -0.000024  -0.000001   0.000000
    41  H    0.000000  -0.000000  -0.000002  -0.000108  -0.000008  -0.000000
    42  N   -0.000000   0.000000   0.000006  -0.000094  -0.000008  -0.000000
    43  C    0.000000   0.000000  -0.000000   0.000001   0.000000  -0.000000
    44  H    0.000000  -0.000000  -0.000000   0.000000   0.000000   0.000000
    45  H   -0.000000   0.000000   0.000000  -0.000000   0.000000  -0.000000
    46  H    0.000000  -0.000000  -0.000000   0.000001   0.000000   0.000000
    47  C   -0.000000  -0.000000  -0.000001  -0.000022  -0.000010   0.000000
    48  H   -0.000000   0.000000   0.000000  -0.000006  -0.000001  -0.000000
    49  H    0.000000  -0.000000  -0.000000   0.000003   0.000000   0.000000
    50  H    0.000002  -0.000000  -0.000011  -0.000028  -0.000001   0.000000
              13         14         15         16         17         18
     1  O    0.000008   0.000000  -0.000000   0.000000  -0.000603   0.000001
     2  C   -0.126738  -0.000917   0.064003   0.013468   0.014930   0.277535
     3  C   -0.003123   0.000036   0.017176  -0.000332   0.000265  -0.123994
     4  O    0.017595   0.015597   0.001797  -0.000012   0.756636  -0.000052
     5  N   -0.000051   0.000000   0.001036   0.000004   0.000001  -0.001221
     6  H    0.000029   0.000000  -0.000986   0.000031   0.000000   0.003544
     7  C    0.015191  -0.000416  -0.003078   0.000036  -0.041426   0.023737
     8  N    0.009800   0.001057   0.000026   0.000001   0.319912  -0.000022
     9  C    0.018670   0.012572  -0.120961  -0.000903  -0.059510   0.013416
    10  C    0.000129   0.000000  -0.000326   0.000003  -0.000281   0.015870
    11  H    0.000000   0.000000   0.000001  -0.000000   0.000001  -0.000116
    12  C    0.309634  -0.074644   0.070021   0.013140   0.198652  -0.145845
    13  C    5.144317   0.458285   0.234604  -0.068894  -0.073588   0.085007
[...]
 00026,0.00000045,-0.00000040,0.00000044,-0.00000099,0.00000004,0.00000
 153,-0.00000035,0.00000010,-0.00000102,0.00000049,-0.00000037,-0.00000
 021,0.00000030,-0.00000020,0.00000013,0.00000051,0.00012424,-0.0002435
 7,-0.00151122,-0.00039395,-0.00047208,-0.00091421,-0.00024961,0.000026
 92,-0.00012048,0.00776600,0.00343073,-0.03314976,-0.00099186,0.0008296
 3,-0.00269259,-0.00101553,-0.00424451,-0.00464864,-0.02505176,-0.09936
 064,0.04102680,0.00095320,-0.00837592,0.02323870,-0.00044968,0.0005700
 4,0.00200173,0.00057107,0.00231113,-0.00207432,-0.00395155,-0.00179763
 ,0.00102235,0.03128074,0.59643905,0.00022828,0.00027598,0.00001091,0.0
 0034718,-0.00039537,0.00005842,-0.00249897,-0.00030438,0.00020867,0.00
 015252,-0.00013800,0.00000478,0.00335440,0.00125476,0.00067128,-0.0033
 3262,-0.00010227,-0.00194896,0.00071665,-0.00019069,0.00003938,0.00010
 271,-0.00012880,0.00000505,0.00000555,-0.00007674,0.00000240,0.0010025
 6,0.00076516,-0.00001308,0.00000056,-0.00004074,0.00002730,0.00011740,
 0.00012997,0.00000375,-0.00017112,-0.00015352,-0.00001457,0.00000497,-
 0.00000677,0.00000427,0.00025673,-0.00011306,0.00000655,0.00000268,-0.
 00001509,0.00000356,-0.00019141,0.00013227,-0.00000237,-0.00012848,0.0
 0030769,-0.00000288,-0.00006260,0.00007942,0.00000239,-0.00065693,-0.0
 0019057,-0.00003115,-0.00004905,-0.00001413,0.00000177,0.00000504,0.00
 000435,-0.00000358,0.00000771,-0.00000263,-0.00000202,-0.00071277,0.00
 022554,-0.00009179,0.00002819,0.00001753,0.00001416,0.00000796,-0.0000
 0492,0.00000914,0.00000639,0.00000067,-0.00000703,-0.00000293,0.000000
 18,0.00000223,0.00000377,0.00000563,-0.00000162,-0.00000151,-0.0000001
 5,-0.00000063,0.00000005,-0.00000012,0.00000312,-0.00000037,-0.0000031
 4,0.00000126,-0.00000007,0.00000228,-0.00000076,0.00000079,0.00000047,
 -0.00000100,0.00000097,-0.00000122,-0.00000282,-0.00070860,-0.00118180
 ,0.00071925,-0.00025776,-0.00017916,-0.00101033,0.00102296,0.00052573,
 -0.00003688,-0.00426244,-0.00012913,-0.03533062,0.00042226,0.00391489,
 0.00416216,-0.00106003,-0.00245876,0.00014326,0.03313915,0.02056239,-0
 .23312252,0.00493365,0.01227358,-0.01544489,-0.00172242,-0.00152838,0.
 00083739,-0.00424119,-0.00262492,0.00221146,-0.00015764,-0.00081868,0.
 00179083,-0.01171342,0.03632015,0.51754626,-0.00004559,-0.00005695,-0.
 00000375,-0.00006622,0.00006368,-0.00001480,0.00047038,0.00011839,0.00
 005517,-0.00003397,0.00002588,-0.00000307,-0.00030535,-0.00043089,0.00
 005332,0.00055394,0.00012502,0.00021590,-0.00013038,0.00003168,-0.0000
 0967,-0.00002157,0.00001799,-0.00000239,0.00000546,0.00001805,0.000003
 16,-0.00015743,-0.00013466,-0.00001591,0.00000602,0.00001173,0.0000015
 0,-0.00002747,-0.00002800,-0.00000225,0.00003267,0.00002719,0.00000288
 ,-0.00000086,0.00000131,0.00000025,-0.00004669,0.00002132,-0.00000603,
 0.00000060,0.00000149,0.00000125,0.00004747,-0.00002011,0.00000395,0.0
 0001252,-0.00005254,-0.00000145,0.00000652,-0.00001215,0.00000814,0.00
 012441,0.00004235,0.00000906,0.00001143,0.00000262,0.00000057,-0.00000
 131,-0.00000121,0.00000038,-0.00000145,0.00000081,0.00000050,0.0001288
 0,-0.00003249,0.00001034,-0.00000479,-0.00000322,-0.00000011,-0.000002
 19,0.00000100,-0.00000146,-0.00000203,-0.00000036,0.00000106,0.0000010
 6,0.00000017,-0.00000029,0.00000144,-0.00000082,0.00000074,0.00000012,
 0.00000013,0.00000016,-0.00000097,-0.00000029,-0.00000081,-0.00000020,
 0.00000057,-0.00000063,0.00000047,-0.00000017,0.00000022,-0.00000102,-
 0.00000019,0.00000021,0.00000027,0.,0.00000027,-0.00022248,0.00020623,
 -0.00006187,-0.00006037,0.00007564,0.00004501,-0.00003153,0.00001519,-
 0.00005977,0.00153947,-0.00068758,0.00102432,-0.00071260,-0.00041851,-
 0.00121213,0.00002865,-0.00013537,-0.00016805,0.00485198,-0.00185281,-
 0.00482598,0.00333726,-0.00195398,0.00083440,-0.00013749,0.00021422,0.
 00003526,0.00042151,0.00154144,-0.00094705,0.00001853,0.00016970,-0.00
 024574,-0.18155907,0.10688117,-0.04745715,0.18772009,0.00003921,0.0000
 4770,0.00000228,0.00006196,-0.00005826,0.00002805,-0.00036227,-0.00005
 775,0.00001067,0.00002923,-0.00002304,0.00000154,0.00055185,0.00029805
 ,0.00000189,-0.00065034,-0.00010295,-0.00017528,0.00011376,-0.00002833
 ,0.00000727,0.00001877,-0.00001733,0.00000123,0.00000046,-0.00001654,-
 0.00000194,0.00015422,0.00011676,-0.00000119,-0.00000336,-0.00001029,0
 .00000440,0.00002410,0.00002418,0.00000183,-0.00002935,-0.00002610,-0.
 00000355,0.00000078,-0.00000124,0.00000049,0.00004387,-0.00001722,0.00
 000378,-0.00000072,-0.00000132,-0.00000031,-0.00003992,0.00001875,-0.0
 0000137,-0.00002755,0.00005035,-0.00000734,-0.00000960,0.00001477,-0.0
 0000368,-0.00010732,-0.00003466,-0.00000568,-0.00000949,-0.00000227,-0
 .00000002,0.00000108,0.00000093,-0.00000046,0.00000125,-0.00000060,-0.
 00000039,-0.00010977,0.00003607,-0.00001677,0.00000522,0.00000317,0.00
 000258,0.00000164,-0.00000091,0.00000147,0.00000148,0.00000025,-0.0000
 0111,-0.00000069,0.00000002,0.00000031,-0.00000020,0.00000091,-0.00000
 046,-0.00000026,-0.00000008,-0.00000015,0.00000045,0.00000006,0.000000
 63,0.00000002,-0.00000060,0.00000039,-0.00000021,0.00000034,-0.0000001
 9,0.00000054,0.00000015,-0.00000018,-0.00000004,-0.00000013,-0.0000003
 7,0.00002225,-0.00016642,0.00035208,0.00006088,-0.00001335,0.00004412,
 0.00009171,0.00002041,0.00003106,-0.00259930,0.00168781,-0.00198493,0.
 00053146,0.00070345,0.00134113,-0.00008517,0.00006203,0.00017919,0.004
 34067,-0.00509550,0.01157459,0.00166693,0.00138848,-0.00033278,0.00010
 414,-0.00016340,-0.00028100,-0.00064114,-0.00050383,0.00008387,-0.0003
 5613,0.00006381,0.00009096,0.10715034,-0.13900788,0.03882449,-0.119305
 65,0.14522363,-0.00004804,-0.00005719,-0.00000189,-0.00006590,0.000080
 04,-0.00001424,0.00055602,-0.00004878,0.00003478,-0.00003157,0.0000290
 2,-0.00000070,-0.00086383,-0.00042611,-0.00012924,0.00113060,0.0002201
 1,0.00019941,-0.00015056,0.00004234,-0.00000780,-0.00002187,0.00002789
 ,-0.00000072,-0.00000087,0.00001307,0.00000183,-0.00023670,-0.00015973
 ,-0.00001511,0.00000355,0.00001227,-0.00000007,-0.00002353,-0.00002522
 ,-0.00000090,0.00003358,0.00003148,0.00000251,-0.00000118,0.00000147,-
 0.00000097,-0.00005290,0.00002238,-0.00000142,-0.00000075,0.00000361,-
 0.00000154,0.00003883,-0.00002845,0.00000019,0.00004170,-0.00007120,0.
 00001304,0.00003052,-0.00002042,0.00000016,0.00013838,0.00003934,0.000
 00602,0.00001012,0.00000305,-0.00000055,-0.00000102,-0.00000086,0.0000
 0079,-0.00000166,0.00000050,0.00000039,0.00015118,-0.00005369,0.000011
 35,-0.00000789,-0.00000403,-0.00000158,-0.00000155,0.00000107,-0.00000
 204,-0.00000124,-0.00000009,0.00000156,0.00000055,-0.00000009,-0.00000
 048,-0.00000124,-0.00000127,0.00000027,0.00000034,0.00000001,0.0000001
 2,0.00000018,0.00000006,-0.00000063,0.00000015,0.00000069,-0.00000023,
 -0.00000006,-0.00000055,0.00000017,-0.00000002,-0.00000008,0.00000021,
 -0.00000030,0.00000030,0.00000067,0.00004663,-0.00013879,-0.00029055,-
 0.00003516,0.00003332,0.00001585,-0.00017226,-0.00007766,0.00001254,-0
 .00092704,0.00557102,0.00344700,0.00099366,-0.00152046,0.00073802,0.00
 043444,-0.00029259,0.00008482,-0.02385428,0.02493985,-0.02845350,-0.00
 450724,-0.00202215,0.00114702,0.00038346,0.00008184,-0.00011857,0.0015
 0450,-0.00057506,0.00060506,0.00055102,-0.00012985,-0.00006025,-0.0491
 5643,0.03980373,-0.06747463,0.05915253,-0.05331378,0.08291129,-0.00001
 650,-0.00001831,-0.00000017,-0.00002533,0.00003463,0.00000534,0.000228
 23,0.00006160,0.00000212,-0.00000736,0.00001083,0.00000086,-0.00011541
 ,-0.00003461,-0.00004194,0.00003546,-0.00008932,0.00005252,-0.00006177
 ,0.00002107,-0.00000224,-0.00000679,0.00001614,0.00000033,-0.00000273,
 0.00000268,-0.00000195,-0.00007074,-0.00006962,-0.00000254,0.00000278,
 0.00000779,0.00000046,-0.00000270,-0.00000559,0.00000087,0.00000906,0.
 00001028,0.00000006,-0.00000010,0.00000043,-0.00000076,-0.00001425,0.0
 0001411,0.00000396,-0.00000100,0.00000215,-0.00000176,0.00000393,-0.00
 001490,-0.00000142,-0.00000624,-0.00002569,0.00000528,0.00000501,-0.00
 000131,-0.00000565,0.00005373,0.00001059,0.00000138,0.00000235,0.00000
 135,-0.00000059,-0.00000012,-0.00000011,0.00000047,-0.00000069,0.00000
 001,0.00000006,0.00006710,-0.00001557,0.00000578,-0.00000128,-0.000001
 22,-0.00000038,-0.00000018,0.00000024,-0.00000079,-0.00000001,0.000000
 14,0.00000066,-0.00000002,-0.00000005,-0.00000025,-0.00000145,-0.00000
 050,-0.00000016,0.00000009,-0.00000004,0.,0.00000060,0.00000005,-0.000
 00013,0.00000022,0.00000020,0.00000015,-0.00000025,-0.00000031,-0.0000
 0004,0.00000046,0.00000006,0.00000007,-0.00000040,0.00000024,0.0000003
 8,0.00011416,-0.00019814,-0.00010571,0.00010369,0.00023375,-0.00020996
 ,-0.00001018,0.00005183,-0.00014084,0.00021532,-0.00056248,0.00123719,
 0.00003378,-0.00034292,-0.00022026,0.00033989,0.00010510,0.00013966,-0
 .00078497,0.00166724,0.00189305,0.00000299,0.00096275,0.00123461,0.000
 04947,-0.00017387,0.00020249,0.00001373,0.00001547,-0.00012520,-0.0000
 3272,0.00019435,-0.00013287,-0.04814616,-0.00975183,-0.00664673,0.0016
 7909,0.01955799,0.01199853,0.04518504,-0.00001707,-0.00001781,-0.00000
 057,-0.00002321,0.00003039,0.00000132,0.00019857,0.00004185,0.00000891
 ,-0.00001073,0.00001234,0.00000034,-0.00020187,-0.00003109,-0.00006202
 ,0.00003551,-0.00004700,0.00002724,-0.00005781,0.00001968,-0.00000256,
 -0.00000825,0.00001535,0.00000007,-0.00000319,0.00000166,-0.00000004,-
 0.00006416,-0.00006283,-0.00000644,0.00000197,0.00000599,0.00000256,-0
 .00000591,-0.00000667,0.00000017,0.00001032,0.00001069,0.00000044,-0.0
 0000044,0.00000063,-0.00000062,-0.00001716,0.00000995,0.00000171,-0.00
 000067,0.00000246,-0.00000112,0.00001010,-0.00001512,-0.00000070,0.000
 00221,-0.00002670,-0.00000039,0.00000702,-0.00000165,-0.00000397,0.000
 05313,0.00000996,0.00000192,0.00000343,0.00000130,-0.00000036,-0.00000
 029,-0.00000029,0.00000046,-0.00000071,0.00000014,0.00000001,0.0000618
 3,-0.00001455,0.00000408,-0.00000099,-0.00000143,-0.00000008,-0.000000
 31,0.00000019,-0.00000072,-0.00000032,0.00000004,0.00000065,0.00000010
 ,0.00000007,-0.00000024,-0.00000100,-0.00000065,-0.00000001,-0.0000000
 3,0.00000019,-0.00000004,0.00000052,-0.00000009,-0.00000022,0.00000016
 ,0.00000008,-0.00000031,-0.00000008,-0.00000033,-0.00000001,0.00000012
 ,-0.00000002,0.00000013,-0.00000025,0.00000047,0.00000063,0.00015444,-
 0.00018852,0.00006198,0.00008476,0.00014717,-0.00011580,-0.00002824,0.
 00001574,-0.00006769,-0.00046708,0.00116315,0.00198937,-0.00001450,0.0
 0008168,0.00027041,0.00000192,0.00034279,0.00014131,-0.00036893,0.0090
 2174,0.00540998,-0.00046509,0.00121275,0.00163673,0.00032596,0.0000213
 2,-0.00017483,0.00005628,-0.00040524,-0.00002906,0.00015120,0.00042270
 ,0.00012783,-0.00926701,-0.25173305,-0.12461720,-0.00228805,-0.0134837
 2,-0.00880372,0.01071488,0.26190963,-0.00003342,-0.00003812,-0.0000014
 1,-0.00005577,0.00005098,-0.00001414,0.00036646,0.00011355,0.00000803,
 -0.00002030,0.00002157,-0.00000028,-0.00044351,-0.00022299,-0.00002086
 ,0.00036811,0.00000037,0.00013298,-0.00011086,0.00003536,-0.00000616,-
 0.00001506,0.00002494,-0.00000059,-0.00000440,0.00001120,0.00000031,-0
 .00014155,-0.00012001,-0.00000282,0.00000046,0.00001291,-0.00000453,-0
 .00001280,-0.00001480,-0.00000023,0.00002037,0.00002059,0.00000151,-0.
 00000055,0.00000095,-0.00000077,-0.00003144,0.00001902,0.00000115,-0.0
 0000192,0.00000394,-0.00000173,0.00002055,-0.00002421,-0.00000025,0.00
 000600,-0.00004863,0.00000896,0.00001129,-0.00000796,-0.00000488,0.000
 10054,0.00002463,0.00000465,0.00000660,0.00000232,-0.00000040,-0.00000
 055,-0.00000057,0.00000064,-0.00000126,0.00000032,0.00000019,0.0001148
 1,-0.00002970,0.00001046,-0.00000377,-0.00000261,-0.00000110,-0.000000
 90,0.00000062,-0.00000130,-0.00000079,-0.00000004,0.00000105,0.0000003
 4,0.00000007,-0.00000038,-0.00000100,-0.00000098,0.00000017,0.00000008
 ,0.00000017,0.,0.00000031,-0.00000007,-0.00000036,0.00000014,0.0000003
 8,-0.00000026,-0.00000004,-0.00000031,0.00000008,0.,-0.00000006,0.0000
 0014,-0.00000020,0.00000029,0.00000064,0.00046577,0.00043477,0.0001769
 6,-0.00012065,-0.00005658,0.00019837,-0.00015109,-0.00009479,0.0000791
 6,0.00260265,0.00363285,-0.00491112,0.00013664,-0.00023559,0.00000154,
 -0.00017116,-0.00145577,-0.00127460,-0.00297111,-0.02921997,-0.0243616
 9,-0.00139166,-0.00188946,0.00084571,0.00046179,0.00065891,0.00005238,
 0.00028571,0.00017797,0.00000048,-0.00022953,0.00011143,0.00022508,-0.
 00536774,-0.11508496,-0.11876420,0.00088981,0.00804241,0.00550763,0.00
 572165,0.12969569,0.13885069,0.00001306,0.00001815,-0.00000064,0.00000
 900,-0.00003133,-0.00001759,-0.00023859,-0.00000885,0.00012372,0.00000
 673,-0.00000622,-0.00000037,0.00043239,-0.00007190,0.00012406,-0.00008
 066,0.00010337,-0.00011753,0.00004444,-0.00001038,-0.00000017,0.000003
 87,-0.00000494,-0.00000041,0.00000347,-0.00000028,0.00000699,0.0000853
 3,0.00004758,-0.00002349,0.00001473,0.00000948,0.00001287,0.00000687,0
 .00000901,-0.00000208,-0.00001466,-0.00001039,-0.00000061,0.00000023,-
 0.00000048,0.00000064,0.00001795,-0.00000881,-0.00000129,-0.00000035,-
 0.00000026,0.00000049,-0.00000994,0.00000519,0.00000119,-0.00000827,0.
 00001658,0.00001383,-0.00000410,0.00000105,0.00000269,-0.00003741,-0.0
 0001329,0.00000115,-0.00000222,-0.00000067,0.00000042,0.00000021,0.000
 00008,-0.00000018,0.00000037,-0.00000004,-0.00000020,-0.00004625,0.000
 02224,-0.00001149,0.00000289,0.00000132,0.00000204,0.00000039,-0.00000
 070,0.00000070,0.00000015,-0.00000004,-0.00000047,-0.00000015,0.000000
 39,0.00000011,0.00000107,0.00000044,0.,-0.00000033,0.00000024,-0.00000
 018,-0.00000041,-0.00000036,0.00000015,0.00000007,-0.00000054,0.000000
 50,0.,0.00000071,-0.00000031,-0.00000017,0.00000002,-0.00000016,0.0000
 0019,-0.00000029,-0.00000032,-0.00018201,-0.00079095,-0.00083301,0.000
 07799,-0.00016780,-0.00076852,0.00011792,0.00017913,-0.00028898,-0.000
 15952,-0.00110840,-0.00018517,-0.00019487,0.00011980,-0.00019029,-0.00
 004409,0.00016585,0.00004585,0.00123579,-0.00054357,0.00247102,0.00168
 400,0.00071614,0.00098799,-0.00004185,0.00008813,-0.00016426,0.0000810
 0,0.00019722,-0.00027192,-0.00014157,-0.00018359,-0.00003658,-0.265672
 29,-0.10583604,0.04016513,-0.01742710,-0.01023778,0.00296459,0.0011631
 5,0.00143892,-0.00029703,0.27930355,-0.00000286,-0.00000715,-0.0000018
 6,0.00001749,0.00000123,0.00000552,0.00011227,0.00001894,0.00005473,-0
 .00000672,0.00000099,-0.00000285,0.00026058,-0.00012412,0.00008386,-0.
 00012109,-0.00003742,0.00010357,0.00000337,-0.00000498,-0.00000051,-0.
 00000110,-0.00000758,-0.00000162,0.00000700,0.00000332,-0.00000553,0.0
 0000835,-0.00000939,0.00002501,0.00000324,-0.00000417,-0.00000296,-0.0
 0000967,-0.00000550,0.00000324,0.00000632,0.00000082,-0.00000236,-0.00
 000033,-0.00000007,0.00000096,-0.00000526,-0.00000207,-0.00000228,0.00
 000070,-0.00000125,0.00000363,0.00001590,0.00000521,0.00000366,-0.0000
 0874,0.00001354,-0.00001850,-0.00000396,-0.00001195,-0.00000897,0.0000
 0139,0.00000831,0.00000244,0.00000213,-0.00000023,0.00000109,-0.000000
 35,-0.00000044,-0.00000029,0.00000009,0.00000037,0.00000021,-0.0000043
 2,-0.00000049,0.00000747,0.,0.00000083,-0.00000082,-0.00000079,-0.0000
 0006,0.00000035,-0.00000081,-0.00000030,-0.00000033,0.00000048,0.00000
 035,0.00000010,0.00000258,0.00000037,0.00000049,-0.00000017,0.00000011
 ,0.,-0.00000121,-0.00000031,-0.00000021,-0.00000035,-0.00000018,-0.000
 00013,0.00000041,0.00000058,0.,-0.00000089,-0.00000010,-0.00000002,0.0
 0000057,-0.00000046,-0.00000047,-0.00041965,0.00003518,-0.00111161,-0.
 00049361,-0.00093864,-0.00127807,0.00018164,0.00005568,-0.00003201,0.0
 0023975,-0.00029711,-0.00034628,-0.00000623,0.00011330,0.00008702,-0.0
 0001809,0.00003044,0.00015351,-0.00573697,-0.00501567,0.00216450,-0.00
 004513,0.00081772,0.00168518,0.00012680,0.00032462,0.00022692,-0.00044
 139,-0.00009323,0.00009778,-0.00062907,0.00006707,0.00026697,-0.104338
 62,-0.09793392,0.01979722,0.01780102,0.00907163,-0.00318665,-0.0223915
 7,-0.00846535,0.00544997,0.11589688,0.10239151,0.00006854,0.00008172,0
 .00000350,0.00009675,-0.00014065,-0.00004790,-0.00090927,-0.00028994,0
 .00002205,0.00004150,-0.00004229,0.00000273,0.00032416,0.00008912,0.00
 004870,0.00031292,0.00028179,-0.00021225,0.00023095,-0.00007289,0.0000
 0421,0.00002924,-0.00004578,0.00000218,-0.00000013,-0.00000650,0.00001
 640,0.00024459,0.00025642,-0.00001384,0.00000301,-0.00000329,0.0000053
 0,0.00002853,0.00003183,-0.00000357,-0.00004774,-0.00003921,0.00000083
 ,0.00000076,-0.00000161,0.00000003,0.00006437,-0.00004515,0.00000098,0
 .00000056,-0.00000313,-0.00000132,-0.00004768,0.00004580,-0.00000267,0
 .00002416,0.00007628,0.00002186,0.00000223,0.00000854,0.00000905,-0.00
 020552,-0.00005380,-0.00000809,-0.00001372,-0.00000444,0.00000007,0.00
 000124,0.00000137,-0.00000118,0.00000239,-0.00000083,-0.00000061,-0.00
 025114,0.00005599,-0.00001168,0.00000350,0.00000528,-0.00000130,0.0000
 0246,-0.00000098,0.00000229,0.00000179,0.00000019,-0.00000188,-0.00000
 090,-0.00000032,0.00000084,0.00000043,0.00000134,-0.00000040,-0.000000
 21,-0.00000014,-0.00000013,0.00000025,0.00000020,0.00000093,-0.0000000
 7,-0.00000064,-0.00000014,0.00000006,0.00000022,0.00000006,0.00000016,
 0.00000011,-0.00000024,0.00000025,-0.00000010,-0.00000052,-0.00042497,
 -0.00051347,-0.00105670,-0.00058016,-0.00136180,-0.00087775,0.00009561
 ,-0.00003811,0.00018031,0.00114731,0.00080399,0.00153542,-0.00019553,-
 0.00022469,-0.00019308,-0.00009269,0.00019234,0.00017477,0.03147685,0.
 01897817,-0.00881699,-0.00010936,-0.00095063,-0.00601750,-0.00023392,0
 .00013958,0.00033534,0.00038711,0.00002508,-0.00005789,0.00138396,0.00
 090414,-0.00044890,0.03302581,0.01607692,-0.05518267,-0.00730998,-0.00
 449977,0.00183490,-0.01486559,-0.00549521,0.00326513,-0.04371288,-0.02
 422101,0.06549131\\0.00000027,0.00000028,-0.00000088,0.00000757,-0.000
 00284,0.00000043,-0.00000697,0.00000586,-0.00000638,-0.00000102,0.0000
 0069,0.00000022,0.00000580,0.00000567,0.00001053,-0.00000461,-0.000000
 05,-0.00000084,-0.00000288,0.00000433,0.00000079,0.00000031,0.00000622
 ,-0.00000331,0.00000068,-0.00000145,0.00000108,-0.00000392,-0.00000056
 ,-0.00000078,-0.00000386,0.00000037,-0.00000332,0.00000101,0.00000183,
 -0.00000009,0.00000022,0.00000236,0.00000276,0.00000094,0.00000131,0.0
 0000403,0.00000207,0.00000089,0.00000409,0.00000143,0.00000028,0.00000
 522,-0.00000022,-0.00000090,0.00000623,-0.00000155,-0.00000024,0.00000
 214,0.00000302,0.00000055,0.00000420,0.00000219,0.00000160,-0.00000804
 ,0.00000073,0.00000238,-0.00000257,0.00000016,0.00000465,-0.00000304,0
 .00000024,0.00000415,-0.00000081,0.00000267,-0.00000229,-0.00000450,-0
 .00000089,0.00000106,-0.00000383,-0.00000040,0.00000098,-0.00000195,-0
 .00000045,0.00000135,-0.00000338,-0.00000029,0.00000052,-0.00000417,0.
 00000047,0.00000016,-0.00000316,-0.00000086,-0.00000102,0.00000075,0.,
 -0.00000090,-0.00000182,-0.00000122,-0.00000242,-0.00000124,-0.0000013
 6,-0.00000278,-0.00000290,-0.00000077,-0.00000190,-0.00000241,-0.00000
 092,-0.00000328,-0.00000118,0.00000760,-0.00000241,-0.00000475,-0.0000
 0096,-0.00000135,-0.00000245,-0.00000013,0.00000170,-0.00000165,-0.000
 00643,0.00000405,0.00000545,0.00000170,-0.00000242,-0.00000221,0.00000
 124,-0.00000070,0.00000062,0.00000074,-0.00000293,0.00000146,-0.000000
 22,-0.00000305,0.00000427,0.00000026,-0.00000182,0.00000417,0.00000005
 ,-0.00000227,0.00000352,0.00000119,-0.00000022,0.00000366,-0.00000243,
 -0.00000303,-0.00000041,-0.00000014,-0.00000447,0.00000163,-0.00000004
 ,-0.00000422,0.00000357,-0.00000002,-0.00000372,0.00000125\\\@


 I DO NOT DEFINE TIME, SPACE, PLACE, AND MOTION, AS BEING WELL KNOWN TO ALL.
                                            -- NEWTON (1642-1726), PRINCIPIA
 Job cpu time:       0 days  8 hours 19 minutes 50.8 seconds.
 Elapsed time:       0 days  0 hours 31 minutes 20.6 seconds.
 File lengths (MBytes):  RWF=   1535 Int=      0 D2E=      0 Chk=     34 Scr=      2
 Normal termination of Gaussian 16 at Tue May 31 16:18:07 2022.
