 Entering Gaussian System, Link 0=g16
 Initial command:
 /mnt/data/huangshiqing/prog/g16/l1.exe "/mnt/data/huangshiqing/prog/g16/scratch/Gau-30925.inp" -scrdir="/mnt/data/huangshiqing/prog/g16/scratch/"
 Entering Link 1 = /mnt/data/huangshiqing/prog/g16/l1.exe PID=     30926.
  
 Copyright (c) 1988,1990,1992,1993,1995,1998,2003,2009,2016,
            Gaussian, Inc.  All Rights Reserved.
  
 This is part of the Gaussian(R) 16 program.  It is based on
 the Gaussian(R) 09 system (copyright 2009, Gaussian, Inc.),
 the Gaussian(R) 03 system (copyright 2003, Gaussian, Inc.),
 the Gaussian(R) 98 system (copyright 1998, Gaussian, Inc.),
 the Gaussian(R) 94 system (copyright 1995, Gaussian, Inc.),
 the Gaussian 92(TM) system (copyright 1992, Gaussian, Inc.),
 the Gaussian 90(TM) system (copyright 1990, Gaussian, Inc.),
 the Gaussian 88(TM) system (copyright 1988, Gaussian, Inc.),
 the Gaussian 86(TM) system (copyright 1986, Carnegie Mellon
 University), and the Gaussian 82(TM) system (copyright 1983,
 Carnegie Mellon University). Gaussian is a federally registered
 trademark of Gaussian, Inc.
  
 This software contains proprietary and confidential information,
 including trade secrets, belonging to Gaussian, Inc.
  
 This software is provided under written license and may be
 used, copied, transmitted, or stored only in accord with that
 written license.
  
 The following legend is applicable only to US Government
 contracts under FAR:
  
                    RESTRICTED RIGHTS LEGEND
  
 Use, reproduction and disclosure by the US Government is
 subject to restrictions as set forth in subparagraphs (a)
 and (c) of the Commercial Computer Software - Restricted
 Rights clause in FAR 52.227-19.
  
 Gaussian, Inc.
 340 Quinnipiac St., Bldg. 40, Wallingford CT 06492
  
  
 ---------------------------------------------------------------
 Warning -- This program may not be used in any manner that
 competes with the business of Gaussian, Inc. or will provide
 assistance to any competitor of Gaussian, Inc.  The licensee
 of this program is prohibited from giving any competitor of
 Gaussian, Inc. access to this program.  By using this program,
 the user acknowledges that Gaussian, Inc. is engaged in the
 business of creating and licensing software in the field of
 computational chemistry and represents and warrants to the
 licensee that it is not a competitor of Gaussian, Inc. and that
 it will not use this program in any manner prohibited above.
 ---------------------------------------------------------------
  

 Cite this work as:
 Gaussian 16, Revision A.03,
 M. J. Frisch, G. W. Trucks, H. B. Schlegel, G. E. Scuseria, 
 M. A. Robb, J. R. Cheeseman, G. Scalmani, V. Barone, 
 G. A. Petersson, H. Nakatsuji, X. Li, M. Caricato, A. V. Marenich, 
 J. Bloino, B. G. Janesko, R. Gomperts, B. Mennucci, H. P. Hratchian, 
 J. V. Ortiz, A. F. Izmaylov, J. L. Sonnenberg, D. Williams-Young, 
 F. Ding, F. Lipparini, F. Egidi, J. Goings, B. Peng, A. Petrone, 
 T. Henderson, D. Ranasinghe, V. G. Zakrzewski, J. Gao, N. Rega, 
 G. Zheng, W. Liang, M. Hada, M. Ehara, K. Toyota, R. Fukuda, 
 J. Hasegawa, M. Ishida, T. Nakajima, Y. Honda, O. Kitao, H. Nakai, 
 T. Vreven, K. Throssell, J. A. Montgomery, Jr., J. E. Peralta, 
 F. Ogliaro, M. J. Bearpark, J. J. Heyd, E. N. Brothers, K. N. Kudin, 
 V. N. Staroverov, T. A. Keith, R. Kobayashi, J. Normand, 
 K. Raghavachari, A. P. Rendell, J. C. Burant, S. S. Iyengar, 
 J. Tomasi, M. Cossi, J. M. Millam, M. Klene, C. Adamo, R. Cammi, 
 J. W. Ochterski, R. L. Martin, K. Morokuma, O. Farkas, 
 J. B. Foresman, and D. J. Fox, Gaussian, Inc., Wallingford CT, 2016.
 
 ******************************************
 Gaussian 16:  ES64L-G16RevA.03 25-Dec-2016
                 2-Jun-2022 
 ******************************************
 %nprocshared=24
 Will use up to   24 processors via shared memory.
 %mem=24GB
 %oldchk=0402_wB97XD_EtOH.chk
 %chk=0602_wB97XD_EtOH.chk
 Copying data from "0402_wB97XD_EtOH.chk" to current chk file "0602_wB97XD_EtOH.chk"
 IOpt=  2 FromEx=T IUOpen= 4 IOptOp= 5 NList=   0 IFRang= 0 IUIn= 4 IUOut= 2.
 ----------------------------------------------------------------------
 # wB97XD/def2SVP geom=check guess=read TD=(Read, NStates=3, Root=1) SC
 RF=(SMD, solvent=Ethanol, CorrectedLR, NonEq=Save)
 ----------------------------------------------------------------------
 1/29=2,30=1,38=1,172=1/1;
 2/12=2,40=1/2;
 3/5=43,7=101,11=9,14=-4,25=1,30=1,70=9032201,71=1,72=4,74=-58,116=-2/1,2,3,8;
 4/5=1/1;
 5/5=2,38=6,53=4/2;
 8/6=1,10=1,107=1,108=3/1;
 9/8=1,15=1,41=3,42=1,49=3,70=2,73=22/14;
 10/5=4,13=10,28=1,74=20/2;
 6/7=2,8=2,9=2,10=2,22=-1/1;
 99/5=1,9=1/99;
 --------------
 02_wB97XD_EtOH
 --------------
 Structure from the checkpoint file:  "0602_wB97XD_EtOH.chk"
 Charge =  0 Multiplicity = 1
 Redundant internal coordinates found in file.  (old form).
 O,0,-2.842718562,-2.4145973339,-0.7749038083
 C,0,1.0078088992,0.4572275924,-0.3608958852
 C,0,1.8617797743,-0.715739923,-0.2945357034
 O,0,-3.5136753169,2.0974259262,-0.7813953922
 N,0,3.1789797759,-0.5573303154,-0.1549059916
 H,0,3.5684208187,0.3737563906,0.0156561038
 C,0,-0.9189340211,-1.0630208785,-0.5767753508
 N,0,-3.1737157223,-0.1639342327,-0.7671640458
 C,0,-0.398771321,0.2472163052,-0.5008572003
 C,0,1.2895662693,-2.0279140563,-0.3786860083
 H,0,1.9460928632,-2.8966420959,-0.3225927987
 C,0,-1.280964566,1.3581944434,-0.5677391064
 C,0,-0.7502197128,2.6775844085,-0.494824041
 H,0,-1.4337504897,3.5260630456,-0.5444999105
 C,0,0.607188032,2.8659460171,-0.3629380355
 H,0,1.0124645068,3.8791282051,-0.3075238055
 C,0,-2.7077702877,1.1631072512,-0.7098999514
 C,0,1.5015082012,1.7681531211,-0.2974534338
 H,0,2.568212743,1.9752606918,-0.2009619316
 C,0,-2.3669716767,-1.2805270635,-0.7131594088
 C,0,-4.617997605,-0.3896511736,-0.8696683092
 H,0,-4.7766059606,-1.2013211531,-1.5915748593
 H,0,-5.0525459269,0.5289148311,-1.2790042516
 C,0,-0.0612679275,-2.202351105,-0.5168848237
 H,0,-0.4974963489,-3.1989560609,-0.577172514
 C,0,-5.2723281896,-0.7449052916,0.4636120491
 H,0,-6.346112132,-0.9047230369,0.2655643799
 H,0,-4.876256388,-1.7124665056,0.8146452373
 C,0,-5.1052353523,0.3041281853,1.5599000085
 H,0,-5.4887355846,1.2743914793,1.2019181487
 H,0,-4.0303859483,0.4565499142,1.7599050438
 C,0,-5.8058319728,-0.0835738823,2.856286569
 H,0,-5.4164354375,-1.0368060999,3.2500326055
 H,0,-6.8905169163,-0.2072675964,2.7033635169
 H,0,-5.6639141175,0.6819357322,3.6349406049
 C,0,4.1848260621,-1.5860715616,-0.034669053
 H,0,4.0736079704,-2.1135198663,0.9300526889
 H,0,4.0725417019,-2.3404928252,-0.8284274857
 C,0,5.5550317047,-0.9226775703,-0.1566195474
 H,0,6.3339009766,-1.6649005807,0.114563472
 H,0,5.7178422538,-0.650932852,-1.2108699325
 N,0,5.638164418,0.2938903357,0.6336691436
 C,0,6.7365467019,1.1431130596,0.215151793
 H,0,6.7176183039,2.0868888975,0.7807971451
 H,0,7.7294630917,0.6713612526,0.3757552795
 H,0,6.6445858668,1.3858628685,-0.8541847685
 C,0,5.6697030948,0.0401959519,2.0622680586
 H,0,6.5640210741,-0.5418433044,2.3713959708
 H,0,5.6786571985,0.9941088513,2.6102359799
 H,0,4.7759151813,-0.5149703925,2.3837375556
 Recover connectivity data from disk.
                           ----------------------------
                           !    Current Parameters    !
                           ! (Angstroms and Degrees)  !
 --------------------------                            --------------------------
 ! Name  Definition              Value                                          !
 --------------------------------------------------------------------------------
 ! R1    R(1,20)                 1.2314                                         !
 ! R2    R(2,3)                  1.4524                                         !
 ! R3    R(2,9)                  1.429                                          !
 ! R4    R(2,18)                 1.4022                                         !
 ! R5    R(3,5)                  1.334                                          !
 ! R6    R(3,10)                 1.434                                          !
 ! R7    R(4,17)                 1.2359                                         !
 ! R8    R(5,6)                  1.0236                                         !
 ! R9    R(5,36)                 1.4438                                         !
 ! R10   R(7,9)                  1.4118                                         !
 ! R11   R(7,20)                 1.4706                                         !
 ! R12   R(7,24)                 1.4273                                         !
 ! R13   R(8,17)                 1.4076                                         !
 ! R14   R(8,20)                 1.3786                                         !
 ! R15   R(8,21)                 1.4654                                         !
 ! R16   R(9,12)                 1.4202                                         !
 ! R17   R(10,11)                1.0903                                         !
 ! R18   R(10,24)                1.369                                          !
 ! R19   R(12,13)                1.424                                          !
 ! R20   R(12,17)                1.4471                                         !
 ! R21   R(13,14)                1.0907                                         !
 ! R22   R(13,15)                1.3767                                         !
 ! R23   R(15,16)                1.0926                                         !
 ! R24   R(15,18)                1.4175                                         !
 ! R25   R(18,19)                1.0909                                         !
 ! R26   R(21,22)                1.0978                                         !
 ! R27   R(21,23)                1.0955                                         !
 ! R28   R(21,26)                1.5271                                         !
 ! R29   R(24,25)                1.0896                                         !
 ! R30   R(26,27)                1.1035                                         !
 ! R31   R(26,28)                1.1028                                         !
 ! R32   R(26,29)                1.5265                                         !
 ! R33   R(29,30)                1.103                                          !
 ! R34   R(29,31)                1.1039                                         !
 ! R35   R(29,32)                1.5237                                         !
 ! R36   R(32,33)                1.1024                                         !
 ! R37   R(32,34)                1.1024                                         !
 ! R38   R(32,35)                1.1011                                         !
 ! R39   R(36,37)                1.1051                                         !
 ! R40   R(36,38)                1.1008                                         !
 ! R41   R(36,39)                1.5272                                         !
 ! R42   R(39,40)                1.1095                                         !
 ! R43   R(39,41)                1.1008                                         !
 ! R44   R(39,42)                1.4531                                         !
 ! R45   R(42,43)                1.4501                                         !
 ! R46   R(42,47)                1.4513                                         !
 ! R47   R(43,44)                1.1005                                         !
 ! R48   R(43,45)                1.111                                          !
 ! R49   R(43,46)                1.1004                                         !
 ! R50   R(47,48)                1.1109                                         !
 ! R51   R(47,49)                1.1001                                         !
 ! R52   R(47,50)                1.1002                                         !
 ! A1    A(3,2,9)              117.6787                                         !
 ! A2    A(3,2,18)             123.0879                                         !
 ! A3    A(9,2,18)             119.2331                                         !
 ! A4    A(2,3,5)              119.3034                                         !
 ! A5    A(2,3,10)             120.1121                                         !
 ! A6    A(5,3,10)             120.5845                                         !
 ! A7    A(3,5,6)              120.0754                                         !
 ! A8    A(3,5,36)             127.7342                                         !
 ! A9    A(6,5,36)             111.6671                                         !
 ! A10   A(9,7,20)             120.3344                                         !
 ! A11   A(9,7,24)             121.1428                                         !
 ! A12   A(20,7,24)            118.522                                          !
 ! A13   A(17,8,20)            124.6302                                         !
 ! A14   A(17,8,21)            118.3138                                         !
 ! A15   A(20,8,21)            117.0482                                         !
 ! A16   A(2,9,7)              120.2861                                         !
 ! A17   A(2,9,12)             120.0699                                         !
 ! A18   A(7,9,12)             119.6438                                         !
 ! A19   A(3,10,11)            119.0632                                         !
 ! A20   A(3,10,24)            121.0808                                         !
 ! A21   A(11,10,24)           119.854                                          !
 ! A22   A(9,12,13)            119.3972                                         !
 ! A23   A(9,12,17)            120.7726                                         !
 ! A24   A(13,12,17)           119.8301                                         !
 ! A25   A(12,13,14)           119.0039                                         !
 ! A26   A(12,13,15)           119.9436                                         !
 ! A27   A(14,13,15)           121.0525                                         !
 ! A28   A(13,15,16)           119.8302                                         !
 ! A29   A(13,15,18)           121.3676                                         !
 ! A30   A(16,15,18)           118.8022                                         !
 ! A31   A(4,17,8)             119.6358                                         !
 ! A32   A(4,17,12)            123.1403                                         !
 ! A33   A(8,17,12)            117.2239                                         !
 ! A34   A(2,18,15)            119.9873                                         !
 ! A35   A(2,18,19)            121.7192                                         !
 ! A36   A(15,18,19)           118.2932                                         !
 ! A37   A(1,20,7)             121.4188                                         !
 ! A38   A(1,20,8)             121.191                                          !
 ! A39   A(7,20,8)             117.3901                                         !
 ! A40   A(8,21,22)            107.5949                                         !
 ! A41   A(8,21,23)            106.734                                          !
 ! A42   A(8,21,26)            113.395                                          !
 ! A43   A(22,21,23)           108.4772                                         !
 ! A44   A(22,21,26)           109.8913                                         !
 ! A45   A(23,21,26)           110.5683                                         !
 ! A46   A(7,24,10)            119.698                                          !
 ! A47   A(7,24,25)            119.1583                                         !
 ! A48   A(10,24,25)           121.1429                                         !
 ! A49   A(21,26,27)           107.0936                                         !
 ! A50   A(21,26,28)           109.1545                                         !
 ! A51   A(21,26,29)           114.8504                                         !
 ! A52   A(27,26,28)           106.2316                                         !
 ! A53   A(27,26,29)           109.5678                                         !
 ! A54   A(28,26,29)           109.5731                                         !
 ! A55   A(26,29,30)           109.4732                                         !
 ! A56   A(26,29,31)           109.3655                                         !
 ! A57   A(26,29,32)           112.6952                                         !
 ! A58   A(30,29,31)           106.0148                                         !
 ! A59   A(30,29,32)           109.882                                          !
 ! A60   A(31,29,32)           109.1888                                         !
 ! A61   A(29,32,33)           111.191                                          !
 ! A62   A(29,32,34)           111.2807                                         !
 ! A63   A(29,32,35)           111.4377                                         !
 ! A64   A(33,32,34)           107.4623                                         !
 ! A65   A(33,32,35)           107.6403                                         !
 ! A66   A(34,32,35)           107.6333                                         !
 ! A67   A(5,36,37)            110.0395                                         !
 ! A68   A(5,36,38)            110.9288                                         !
 ! A69   A(5,36,39)            107.9923                                         !
 ! A70   A(37,36,38)           106.9838                                         !
 ! A71   A(37,36,39)           111.5505                                         !
 ! A72   A(38,36,39)           109.3675                                         !
 ! A73   A(36,39,40)           108.6454                                         !
 ! A74   A(36,39,41)           108.4451                                         !
 ! A75   A(36,39,42)           111.8125                                         !
 ! A76   A(40,39,41)           107.1806                                         !
 ! A77   A(40,39,42)           112.7662                                         !
 ! A78   A(41,39,42)           107.8016                                         !
 ! A79   A(39,42,43)           112.1277                                         !
 ! A80   A(39,42,47)           112.9701                                         !
 ! A81   A(43,42,47)           111.7163                                         !
 ! A82   A(42,43,44)           109.9298                                         !
 ! A83   A(42,43,45)           112.7413                                         !
 ! A84   A(42,43,46)           110.2648                                         !
 ! A85   A(44,43,45)           107.7726                                         !
 ! A86   A(44,43,46)           107.9911                                         !
 ! A87   A(45,43,46)           107.99                                           !
 ! A88   A(42,47,48)           112.5192                                         !
 ! A89   A(42,47,49)           109.8103                                         !
 ! A90   A(42,47,50)           110.9885                                         !
 ! A91   A(48,47,49)           108.0072                                         !
 ! A92   A(48,47,50)           107.9577                                         !
 ! A93   A(49,47,50)           107.3744                                         !
 ! D1    D(9,2,3,5)           -179.5535                                         !
 ! D2    D(9,2,3,10)             0.4438                                         !
 ! D3    D(18,2,3,5)             0.6111                                         !
 ! D4    D(18,2,3,10)         -179.3916                                         !
 ! D5    D(3,2,9,7)             -0.3048                                         !
 ! D6    D(3,2,9,12)           179.8556                                         !
 ! D7    D(18,2,9,7)           179.5371                                         !
 ! D8    D(18,2,9,12)           -0.3025                                         !
 ! D9    D(3,2,18,15)         -179.7372                                         !
 ! D10   D(3,2,18,19)            0.46                                           !
 ! D11   D(9,2,18,15)            0.4299                                         !
 ! D12   D(9,2,18,19)         -179.373                                          !
 ! D13   D(2,3,5,6)              7.2583                                         !
 ! D14   D(2,3,5,36)           178.2336                                         !
 ! D15   D(10,3,5,6)          -172.7389                                         !
 ! D16   D(10,3,5,36)           -1.7636                                         !
 ! D17   D(2,3,10,11)         -179.7339                                         !
 ! D18   D(2,3,10,24)           -0.251                                          !
 ! D19   D(5,3,10,11)            0.2633                                         !
 ! D20   D(5,3,10,24)          179.7462                                         !
 ! D21   D(3,5,36,37)          -68.3271                                         !
 ! D22   D(3,5,36,38)           49.862                                          !
 ! D23   D(3,5,36,39)          169.6974                                         !
 ! D24   D(6,5,36,37)          103.2742                                         !
 ! D25   D(6,5,36,38)         -138.5367                                         !
 ! D26   D(6,5,36,39)          -18.7013                                         !
 ! D27   D(20,7,9,2)           179.6528                                         !
 ! D28   D(20,7,9,12)           -0.5069                                         !
 ! D29   D(24,7,9,2)            -0.0284                                         !
 ! D30   D(24,7,9,12)          179.8118                                         !
 ! D31   D(9,7,20,1)          -179.6587                                         !
 ! D32   D(9,7,20,8)             0.2364                                         !
 ! D33   D(24,7,20,1)            0.0308                                         !
 ! D34   D(24,7,20,8)          179.9259                                         !
 ! D35   D(9,7,24,10)            0.2357                                         !
 ! D36   D(9,7,24,25)          179.9186                                         !
 ! D37   D(20,7,24,10)        -179.4513                                         !
 ! D38   D(20,7,24,25)           0.2317                                         !
 ! D39   D(20,8,17,4)          179.1948                                         !
 ! D40   D(20,8,17,12)          -0.7967                                         !
 ! D41   D(21,8,17,4)           -1.8492                                         !
 ! D42   D(21,8,17,12)         178.1593                                         !
 ! D43   D(17,8,20,1)         -179.6642                                         !
 ! D44   D(17,8,20,7)            0.4405                                         !
 ! D45   D(21,8,20,1)            1.3678                                         !
 ! D46   D(21,8,20,7)         -178.5276                                         !
 ! D47   D(17,8,21,22)         138.4735                                         !
 ! D48   D(17,8,21,23)          22.208                                          !
 ! D49   D(17,8,21,26)         -99.7838                                         !
 ! D50   D(20,8,21,22)         -42.491                                          !
 ! D51   D(20,8,21,23)        -158.7565                                         !
 ! D52   D(20,8,21,26)          79.2516                                         !
 ! D53   D(2,9,12,13)            0.0347                                         !
 ! D54   D(2,9,12,17)          179.9776                                         !
 ! D55   D(7,9,12,13)         -179.806                                          !
 ! D56   D(7,9,12,17)            0.137                                          !
 ! D57   D(3,10,24,7)           -0.092                                          !
 ! D58   D(3,10,24,25)        -179.7685                                         !
 ! D59   D(11,10,24,7)         179.3868                                         !
 ! D60   D(11,10,24,25)         -0.2897                                         !
 ! D61   D(9,12,13,14)        -179.8597                                         !
 ! D62   D(9,12,13,15)           0.1062                                         !
 ! D63   D(17,12,13,14)          0.1968                                         !
 ! D64   D(17,12,13,15)       -179.8373                                         !
 ! D65   D(9,12,17,4)         -179.5029                                         !
 ! D66   D(9,12,17,8)            0.4883                                         !
 ! D67   D(13,12,17,4)           0.4398                                         !
 ! D68   D(13,12,17,8)        -179.5691                                         !
 ! D69   D(12,13,15,16)        179.9783                                         !
 ! D70   D(12,13,15,18)          0.0221                                         !
 ! D71   D(14,13,15,16)         -0.0566                                         !
 ! D72   D(14,13,15,18)        179.9873                                         !
 ! D73   D(13,15,18,2)          -0.2955                                         !
 ! D74   D(13,15,18,19)        179.514                                          !
 ! D75   D(16,15,18,2)         179.7479                                         !
 ! D76   D(16,15,18,19)         -0.4426                                         !
 ! D77   D(8,21,26,27)        -179.244                                          !
 ! D78   D(8,21,26,28)         -64.6369                                         !
 ! D79   D(8,21,26,29)          58.8466                                         !
 ! D80   D(22,21,26,27)        -58.7933                                         !
 ! D81   D(22,21,26,28)         55.8138                                         !
 ! D82   D(22,21,26,29)        179.2973                                         !
 ! D83   D(23,21,26,27)         60.9262                                         !
 ! D84   D(23,21,26,28)        175.5333                                         !
 ! D85   D(23,21,26,29)        -60.9831                                         !
 ! D86   D(21,26,29,30)         55.9413                                         !
 ! D87   D(21,26,29,31)        -59.8092                                         !
 ! D88   D(21,26,29,32)        178.5478                                         !
 ! D89   D(27,26,29,30)        -64.6162                                         !
 ! D90   D(27,26,29,31)        179.6333                                         !
 ! D91   D(27,26,29,32)         57.9903                                         !
 ! D92   D(28,26,29,30)        179.2014                                         !
 ! D93   D(28,26,29,31)         63.451                                          !
 ! D94   D(28,26,29,32)        -58.192                                          !
 ! D95   D(26,29,32,33)         59.3502                                         !
 ! D96   D(26,29,32,34)        -60.4118                                         !
 ! D97   D(26,29,32,35)        179.4432                                         !
 ! D98   D(30,29,32,33)       -178.2728                                         !
 ! D99   D(30,29,32,34)         61.9652                                         !
 ! D100  D(30,29,32,35)        -58.1798                                         !
 ! D101  D(31,29,32,33)        -62.3929                                         !
 ! D102  D(31,29,32,34)        177.8452                                         !
 ! D103  D(31,29,32,35)         57.7002                                         !
 ! D104  D(5,36,39,40)         169.9308                                         !
 ! D105  D(5,36,39,41)         -73.8907                                         !
 ! D106  D(5,36,39,42)          44.835                                          !
 ! D107  D(37,36,39,40)         48.8915                                         !
 ! D108  D(37,36,39,41)        165.0699                                         !
 ! D109  D(37,36,39,42)        -76.2043                                         !
 ! D110  D(38,36,39,40)        -69.2545                                         !
 ! D111  D(38,36,39,41)         46.924                                          !
 ! D112  D(38,36,39,42)        165.6498                                         !
 ! D113  D(36,39,42,43)       -161.8103                                         !
 ! D114  D(36,39,42,47)         70.8759                                         !
 ! D115  D(40,39,42,43)         75.4092                                         !
 ! D116  D(40,39,42,47)        -51.9046                                         !
 ! D117  D(41,39,42,43)        -42.7033                                         !
 ! D118  D(41,39,42,47)       -170.0171                                         !
 ! D119  D(39,42,43,44)        175.4984                                         !
 ! D120  D(39,42,43,45)        -64.2344                                         !
 ! D121  D(39,42,43,46)         56.5453                                         !
 ! D122  D(47,42,43,44)        -56.5198                                         !
 ! D123  D(47,42,43,45)         63.7474                                         !
 ! D124  D(47,42,43,46)       -175.4729                                         !
 ! D125  D(39,42,47,48)         62.6523                                         !
 ! D126  D(39,42,47,49)       -177.0126                                         !
 ! D127  D(39,42,47,50)        -58.4481                                         !
 ! D128  D(43,42,47,48)        -64.8778                                         !
 ! D129  D(43,42,47,49)         55.4573                                         !
 ! D130  D(43,42,47,50)        174.0218                                         !
 --------------------------------------------------------------------------------
                          Input orientation:                          
 ---------------------------------------------------------------------
 Center     Atomic      Atomic             Coordinates (Angstroms)
 Number     Number       Type             X           Y           Z
 ---------------------------------------------------------------------
      1          8           0       -2.842719   -2.414597   -0.774904
      2          6           0        1.007809    0.457228   -0.360896
      3          6           0        1.861780   -0.715740   -0.294536
      4          8           0       -3.513675    2.097426   -0.781395
      5          7           0        3.178980   -0.557330   -0.154906
      6          1           0        3.568421    0.373756    0.015656
      7          6           0       -0.918934   -1.063021   -0.576775
      8          7           0       -3.173716   -0.163934   -0.767164
      9          6           0       -0.398771    0.247216   -0.500857
     10          6           0        1.289566   -2.027914   -0.378686
     11          1           0        1.946093   -2.896642   -0.322593
     12          6           0       -1.280965    1.358194   -0.567739
     13          6           0       -0.750220    2.677584   -0.494824
     14          1           0       -1.433750    3.526063   -0.544500
     15          6           0        0.607188    2.865946   -0.362938
     16          1           0        1.012465    3.879128   -0.307524
     17          6           0       -2.707770    1.163107   -0.709900
     18          6           0        1.501508    1.768153   -0.297453
     19          1           0        2.568213    1.975261   -0.200962
     20          6           0       -2.366972   -1.280527   -0.713159
     21          6           0       -4.617998   -0.389651   -0.869668
     22          1           0       -4.776606   -1.201321   -1.591575
     23          1           0       -5.052546    0.528915   -1.279004
     24          6           0       -0.061268   -2.202351   -0.516885
     25          1           0       -0.497496   -3.198956   -0.577173
     26          6           0       -5.272328   -0.744905    0.463612
     27          1           0       -6.346112   -0.904723    0.265564
     28          1           0       -4.876256   -1.712467    0.814645
     29          6           0       -5.105235    0.304128    1.559900
     30          1           0       -5.488736    1.274391    1.201918
     31          1           0       -4.030386    0.456550    1.759905
     32          6           0       -5.805832   -0.083574    2.856287
     33          1           0       -5.416435   -1.036806    3.250033
     34          1           0       -6.890517   -0.207268    2.703364
     35          1           0       -5.663914    0.681936    3.634941
     36          6           0        4.184826   -1.586072   -0.034669
     37          1           0        4.073608   -2.113520    0.930053
     38          1           0        4.072542   -2.340493   -0.828427
     39          6           0        5.555032   -0.922678   -0.156620
     40          1           0        6.333901   -1.664901    0.114563
     41          1           0        5.717842   -0.650933   -1.210870
     42          7           0        5.638164    0.293890    0.633669
     43          6           0        6.736547    1.143113    0.215152
     44          1           0        6.717618    2.086889    0.780797
     45          1           0        7.729463    0.671361    0.375755
     46          1           0        6.644586    1.385863   -0.854185
     47          6           0        5.669703    0.040196    2.062268
     48          1           0        6.564021   -0.541843    2.371396
     49          1           0        5.678657    0.994109    2.610236
     50          1           0        4.775915   -0.514970    2.383738
 ---------------------------------------------------------------------
                    Distance matrix (angstroms):
                    1          2          3          4          5
     1  O    0.000000
     2  C    4.821342   0.000000
     3  C    5.024856   1.452420   0.000000
     4  O    4.561642   4.828135   6.086580   0.000000
     5  N    6.332037   2.405357   1.334019   7.227161   0.000000
     6  H    7.035809   2.589497   2.048376   7.332286   1.023562
     7  C    2.359441   2.463757   2.816493   4.094261   4.150493
     8  N    2.274885   4.246886   5.087640   2.286815   6.394244
     9  C    3.623980   1.429042   2.465754   3.633814   3.683379
    10  C    4.169207   2.501126   1.433984   6.344425   2.404699
    11  H    4.834218   3.482856   2.182712   7.413520   2.649624
    12  C    4.088514   2.468402   3.775273   2.361590   4.871424
    13  C    5.512469   2.835240   4.286876   2.838203   5.100865
    14  H    6.109805   3.925898   5.377350   2.534405   6.172776
    15  C    6.321053   2.441808   3.795676   4.212748   4.286748
    16  H    7.395395   3.422320   4.672721   4.887224   4.939559
    17  C    3.580839   3.798105   4.958163   1.235939   6.158064
    18  C    6.049435   1.402245   2.509886   5.049226   2.870906
    19  H    6.991312   2.182857   2.783754   6.110744   2.605604
    20  C    1.231366   3.812220   4.286790   3.567934   5.620697
    21  C    2.694625   5.711896   6.513419   2.722659   7.831466
    22  H    2.424647   6.142053   6.781317   3.623964   8.109876
    23  H    3.715066   6.129924   7.094099   2.252990   8.378636
    24  C    2.801444   2.870647   2.440812   5.520613   3.651894
    25  H    2.480803   3.959848   3.436922   6.098418   4.546754
    26  C    3.197623   6.447097   7.174339   3.566756   8.475987
    27  H    3.954246   7.505166   8.229150   4.258136   9.540695
    28  H    2.674870   6.380572   6.901078   4.349627   8.195194
    29  C    4.238132   6.409540   7.281371   3.351215   8.503581
    30  H    4.951552   6.731659   7.760804   2.917496   8.962448
    31  H    4.009900   5.466370   6.349221   3.068823   7.527909
    32  C    5.234430   7.554365   8.313819   4.821148   9.487812
    33  H    4.972167   7.519432   8.101819   5.449433   9.257681
    34  H    5.775406   8.497929   9.265454   5.371984  10.473157
    35  H    6.082301   7.780044   8.604089   5.111865   9.700283
    36  C    7.114829   3.791429   2.494304   8.566953   1.443777
    37  H    7.129733   4.204095   2.888873   8.844659   2.097432
    38  H    6.915864   4.175933   2.795055   8.789085   2.105173
    39  C    8.551626   4.756375   3.701615   9.578769   2.403977
    40  H    9.250056   5.752977   4.590004  10.579821   3.354527
    41  H    8.751216   4.912727   3.963974   9.641517   2.751299
    42  N    9.013621   4.738779   4.017711   9.434581   2.719194
    43  C   10.266442   5.798337   5.241991  10.342672   3.960396
    44  H   10.680994   6.046584   5.708786  10.349876   4.515462
    45  H   11.073309   6.765290   6.066552  11.392138   4.743225
    46  H   10.220505   5.734017   5.254063  10.183413   4.034280
    47  C    9.302520   5.270569   4.541612   9.831229   3.387713
    48  H   10.094214   6.271767   5.408189  10.884200   4.223854
    49  H    9.782244   5.561716   5.092135   9.859992   4.037494
    50  H    8.463402   4.762017   3.963034   9.249864   2.999451
                    6          7          8          9         10
     6  H    0.000000
     7  C    4.748859   0.000000
     8  N    6.808695   2.434881   0.000000
     9  C    4.002676   1.411756   2.817850   0.000000
    10  C    3.334172   2.418208   4.852445   2.835776   0.000000
    11  H    3.666315   3.411034   5.820462   3.926068   1.090349
    12  C    4.982570   2.448149   2.437038   1.420215   4.255479
    13  C    4.921267   3.745305   3.744560   2.455655   5.129906
    14  H    5.939068   4.617983   4.085724   3.438593   6.187941
    15  C    3.888861   4.220374   4.861976   2.808687   4.941230
    16  H    4.350286   5.312968   5.837956   3.901250   5.913966
    17  C    6.367109   2.858899   1.407630   2.492796   5.125526
    18  C    2.512868   3.735252   5.080483   2.442475   3.802847
    19  H    1.900567   4.640321   6.153575   3.446603   4.206178
    20  C    6.204572   1.470620   1.378598   2.500577   3.747096
    21  C    8.269464   3.771244   1.465403   4.282930   6.150145
    22  H    8.643121   3.991313   2.079683   4.738498   6.241218
    23  H    8.719019   4.484878   2.066887   4.726784   6.897125
    24  C    4.482697   1.427323   3.728956   2.472761   1.369044
    25  H    5.444943   2.177115   4.050877   3.448431   2.145770
    26  C    8.922495   4.487276   2.501302   5.066168   6.738994
    27  H    9.999746   5.494439   3.417513   6.106163   7.744689
    28  H    8.735175   4.244789   2.792618   5.061499   6.288157
    29  C    8.810326   4.894854   3.060241   5.138167   7.077431
    30  H    9.178804   5.432341   3.362348   5.464638   7.703824
    31  H    7.796866   4.177356   2.739519   4.282930   6.248842
    32  C    9.805863   6.052025   4.479273   6.373079   8.036802
    33  H    9.652902   5.905308   4.682901   6.394907   7.688976
    34  H   10.814376   6.866690   5.085376   7.253713   8.929028
    35  H    9.921200   6.580141   5.127876   6.709362   8.473687
    36  C    2.055095   5.159053   7.530416   4.958593   2.948915
    37  H    2.697754   5.319733   7.694487   5.255735   3.077501
    38  H    2.886826   5.158497   7.566334   5.176503   2.836358
    39  C    2.378454   6.489103   8.782909   6.077411   4.411922
    40  H    3.437119   7.310528   9.665667   7.025938   5.081376
    41  H    2.678501   6.679722   8.915932   6.222841   4.711500
    42  N    2.161517   6.804552   8.934269   6.142794   5.032489
    43  C    3.266302   8.006283  10.044233   7.226899   6.330691
    44  H    3.665748   8.371491  10.261622   7.461235   6.909396
    45  H    4.187184   8.871875  10.994694   8.186363   7.023357
    46  H    3.353174   7.954924   9.940246   7.143545   6.368376
    47  C    2.952164   7.182742   9.287271   6.590816   5.424107
    48  H    3.919369   8.059650  10.238012   7.573172   6.131169
    49  H    3.401438   7.610324   9.545282   6.868179   6.109861
    50  H    2.802800   6.441762   8.558507   5.973206   4.698363
                   11         12         13         14         15
    11  H    0.000000
    12  C    5.345805   0.000000
    13  C    6.194495   1.424007   0.000000
    14  H    7.261110   2.173370   1.090687   0.000000
    15  C    5.916225   2.424949   1.376746   2.152707   0.000000
    16  H    6.839806   3.417987   2.141459   2.482898   1.092638
    17  C    6.187893   1.447081   2.484331   2.689618   3.742859
    18  C    4.686001   2.825469   2.436452   3.430309   1.417479
    19  H    4.912969   3.915541   3.404645   4.305661   2.159902
    20  C    4.622434   2.857168   4.281145   4.899251   5.114833
    21  C    7.047807   3.779142   4.950570   5.057468   6.177237
    22  H    7.048341   4.451839   5.697417   5.883809   6.858385
    23  H    7.850485   3.926631   4.872549   4.755846   6.191404
    24  C    2.132906   3.764005   4.928378   5.890603   5.114506
    25  H    2.475345   4.624017   5.882549   6.789957   6.168408
    26  C    7.573222   4.627926   5.751652   5.830278   6.949111
    27  H    8.548353   5.609894   6.687685   6.664786   7.934818
    28  H    7.017124   4.926060   6.165341   6.414072   7.239940
    29  C    7.969312   4.501439   5.368552   5.318756   6.549198
    30  H    8.660158   4.565528   5.225076   4.956098   6.491695
    31  H    7.162332   3.713517   4.558101   4.634081   5.640811
    32  C    8.838041   5.854662   6.664319   6.611348   7.758215
    33  H    8.392226   6.116660   7.042316   7.147030   8.035488
    34  H    9.719816   6.679660   7.500268   7.366320   8.663857
    35  H    9.294111   6.109835   6.721753   6.591742   7.751107
    36  C    2.610062   6.231190   6.537980   7.613294   5.720814
    37  H    2.590120   6.554970   6.946529   8.019364   6.203465
    38  H    2.255428   6.512164   6.967885   8.050860   6.271552
    39  C    4.116858   7.218188   7.268594   8.293661   6.235174
    40  H    4.578335   8.221363   8.331464   9.365729   7.317911
    41  H    4.478654   7.309823   7.309417   8.308828   6.261486
    42  N    4.972457   7.102849   6.911364   7.864287   5.737545
    43  C    6.289455   8.058515   7.675307   8.544547   6.393073
    44  H    6.987167   8.144131   7.598996   8.382866   6.265175
    45  H    6.831230   9.085688   8.757161   9.641612   7.489237
    46  H    6.379520   7.930773   7.515373   8.362767   6.235555
    47  C    5.308281   7.547572   7.396617   8.331000   6.284548
    48  H    5.841910   8.590254   8.489879   9.434758   7.387386
    49  H    6.137708   7.659531   7.335254   8.182267   6.169549
    50  H    4.583064   6.993265   7.001192   7.966459   6.029354
                   16         17         18         19         20
    16  H    0.000000
    17  C    4.623724   0.000000
    18  C    2.166906   4.272496   0.000000
    19  H    2.460979   5.362332   1.090900   0.000000
    20  C    6.181195   2.467287   4.942914   5.934521   0.000000
    21  C    7.088059   2.466891   6.513977   7.594840   2.425958
    22  H    7.808527   3.263120   7.064506   8.122243   2.565974
    23  H    6.996575   2.494805   6.742016   7.831351   3.287335
    24  C    6.179088   4.285737   4.272625   4.946354   2.490894
    25  H    7.242373   4.891883   5.361570   6.025996   2.682126
    26  C    7.840597   3.405084   7.264953   8.325566   3.180059
    27  H    8.795585   4.297090   8.309416   9.379613   4.114935
    28  H    8.197697   3.910945   7.350330   8.369642   2.969389
    29  C    7.327629   3.411404   7.017278   8.048299   3.895641
    30  H    7.164403   3.376566   7.166270   8.208149   4.465483
    31  H    6.435732   2.889372   6.046063   7.049325   3.449700
    32  C    8.497168   4.885682   8.171425   9.149327   5.098961
    33  H    8.840440   5.278025   8.265010   9.205244   5.006548
    34  H    9.392614   5.569889   9.128706  10.132428   5.769487
    35  H    8.386841   5.277116   8.245415   9.173590   5.798885
    36  C    6.325088   7.451296   4.303496   3.914611   6.593918
    37  H    6.842078   7.707971   4.815584   4.501504   6.698887
    38  H    6.951194   7.632948   4.875768   4.613290   6.527185
    39  C    6.611734   8.539936   4.867387   4.161863   7.949587
    40  H    7.696239   9.509426   5.942023   5.246974   8.748603
    41  H    6.593790   8.633230   4.946087   4.223384   8.124551
    42  N    5.927636   8.497961   4.489139   3.598363   8.268914
    43  C    6.365853   9.489533   5.297081   4.270905   9.466247
    44  H    6.078268   9.587153   5.335918   4.265428   9.803121
    45  H    7.474939  10.505061   6.359527   5.354555  10.340870
    46  H    6.183527   9.356121   5.187229   4.170241   9.398813
    47  C    6.484072   8.895387   5.091952   4.299526   8.604385
    48  H    7.585604   9.918032   6.171538   5.377669   9.477487
    49  H    6.213696   9.021310   5.148046   4.305852   8.997281
    50  H    6.380795   8.269951   4.808657   4.213772   7.822895
                   21         22         23         24         25
    21  C    0.000000
    22  H    1.097777   0.000000
    23  H    1.095514   1.779764   0.000000
    24  C    4.916719   4.938768   5.740514   0.000000
    25  H    4.995626   4.830149   5.927737   1.089565   0.000000
    26  C    1.527086   2.162834   2.169708   5.499152   5.468511
    27  H    2.130829   2.449548   2.472716   6.464931   6.338771
    28  H    2.157186   2.461929   3.072171   5.019669   4.829115
    29  C    2.573234   3.508015   2.848277   6.003089   6.170084
    30  H    2.796193   3.799985   2.626970   6.670789   6.934585
    31  H    2.824181   3.812846   3.207026   5.292204   5.595173
    32  C    3.922674   4.700227   4.247730   6.990531   7.047884
    33  H    4.245968   4.886472   4.805837   6.650262   6.596844
    34  H    4.238415   4.889096   4.447399   7.809545   7.783497
    35  H    4.746972   5.625872   4.954194   7.546284   7.713306
    36  C    8.922912   9.103804   9.557750   4.317597   4.981952
    37  H    9.041832   9.247540   9.754439   4.381634   4.934055
    38  H    8.906905   8.954748   9.576207   4.147834   4.656752
    39  C   10.211909  10.434533  10.765109   5.771497   6.480077
    40  H   11.069736  11.250297  11.679299   6.448703   7.035610
    41  H   10.344770  10.515765  10.835033   6.023838   6.747179
    42  N   10.388268  10.754293  10.863003   6.327600   7.163271
    43  C   11.508774  11.887528  11.899262   7.611721   8.474239
    44  H   11.719790  12.188423  12.050180   8.126183   9.046663
    45  H   12.455385  12.797620  12.889464   8.351678   9.141679
    46  H   11.401687  11.733750  11.736172   7.612984   8.491563
    47  C   10.705971  11.136306  11.241422   6.672711   7.449369
    48  H   11.643247  12.031204  12.223607   7.415788   8.100576
    49  H   10.956533  11.479880  11.423717   7.276193   8.117034
    50  H    9.942130  10.369419  10.540589   5.887207   6.616618
                   26         27         28         29         30
    26  C    0.000000
    27  H    1.103529   0.000000
    28  H    1.102847   1.764771   0.000000
    29  C    1.526512   2.162499   2.162057   0.000000
    30  H    2.160900   2.521982   3.073505   1.103011   0.000000
    31  H    2.160160   3.073875   2.512697   1.103873   1.762668
    32  C    2.539070   2.770926   2.772310   1.523734   2.163690
    33  H    2.805372   3.128705   2.584458   2.179793   3.088954
    34  H    2.814973   2.593393   3.144857   2.180886   2.532714
    35  H    3.499506   3.786235   3.782543   2.181892   2.510237
    36  C    9.507555  10.557227   9.101677   9.613571  10.163129
    37  H    9.457124  10.510628   8.959589   9.512775  10.148412
    38  H    9.567751  10.573864   9.120038   9.845289  10.421503
    39  C   10.846567  11.908643  10.506136  10.867050  11.341849
    40  H   11.647866  12.703677  11.232097  11.697004  12.230965
    41  H   11.117399  12.156614  10.838104  11.212864  11.623933
    42  N   10.961153  12.049691  10.705665  10.783258  11.184462
    43  C   12.158924  13.242059  11.973760  11.947387  12.265744
    44  H   12.323899  13.411796  12.200581  11.981866  12.240612
    45  H   13.078995  14.163968  12.836644  12.894438  13.257713
    46  H   12.177422  13.238537  12.046346  12.043930  12.306806
    47  C   11.086033  12.186092  10.763162  10.789872  11.259405
    48  H   11.990831  13.085784  11.604903  11.727990  12.244808
    49  H   11.294080  12.397505  11.043364  10.856870  11.259333
    50  H   10.232641  11.328639   9.851927   9.949209  10.486256
                   31         32         33         34         35
    31  H    0.000000
    32  C    2.155457   0.000000
    33  H    2.524228   1.102414   0.000000
    34  H    3.084010   1.102373   1.777610   0.000000
    35  H    2.496992   1.101112   1.778616   1.778503   0.000000
    36  C    8.653468  10.508490  10.162440  11.491786  10.752096
    37  H    8.542168  10.268125   9.828659  11.269005  10.485720
    38  H    8.954348  10.782072  10.410289  11.713789  11.129030
    39  C    9.871959  11.783502  11.488751  12.789957  11.950542
    40  H   10.706360  12.545547  12.177688  13.554033  12.721960
    41  H   10.250852  12.233508  12.000862  13.209420  12.441977
    42  N    9.735283  11.663943  11.437670  12.708369  11.700222
    43  C   10.898829  12.876009  12.714461  13.918031  12.871638
    44  H   10.914955  12.878485  12.770664  13.933440  12.783676
    45  H   11.842975  13.781407  13.564437  14.830157  13.784228
    46  H   11.029602  13.074393  12.968506  14.085213  13.120478
    47  C    9.713727  11.503638  11.201481  12.579005  11.460192
    48  H   10.658901  12.387833  12.022825  13.462791  12.353808
    49  H    9.761022  11.537566  11.297568  12.626801  11.393042
    50  H    8.881664  10.601074  10.242402  11.674865  10.582444
                   36         37         38         39         40
    36  C    0.000000
    37  H    1.105106   0.000000
    38  H    1.100823   1.773068   0.000000
    39  C    1.527229   2.189424   2.158542   0.000000
    40  H    2.155692   2.444424   2.541535   1.109537   0.000000
    41  H    2.146642   3.070214   2.389119   1.100816   1.778885
    42  N    2.468426   2.886400   3.395420   1.453102   2.142518
    43  C    3.744614   4.267081   4.507936   2.408668   2.838518
    44  H    4.535489   4.965531   5.402568   3.359739   3.829756
    45  H    4.222429   4.629048   4.888189   2.748188   2.733850
    46  H    3.943909   4.694583   4.527891   2.646334   3.215922
    47  C    3.040847   2.909970   4.071207   2.421515   2.672464
    48  H    3.541205   3.278688   4.436381   2.748446   2.531305
    49  H    3.985522   3.880278   5.052087   3.368211   3.705139
    50  H    2.710228   2.271959   3.761020   2.688245   2.983087
                   41         42         43         44         45
    41  H    0.000000
    42  N    2.073973   0.000000
    43  C    2.507967   1.450096   0.000000
    44  H    3.530150   2.098026   1.100466   0.000000
    45  H    2.883134   2.140685   1.110957   1.786507   0.000000
    46  H    2.265969   2.102141   1.100393   1.780432   1.788917
    47  C    3.345655   1.451293   2.401337   2.632346   2.735929
    48  H    3.682465   2.139008   2.741939   3.076334   2.610115
    49  H    4.160354   2.097323   2.622549   2.370750   3.050061
    50  H    3.718456   2.111982   3.360964   3.620677   3.763352
                   46         47         48         49         50
    46  H    0.000000
    47  C    3.356622   0.000000
    48  H    3.758579   1.110916   0.000000
    49  H    3.617831   1.100136   1.788872   0.000000
    50  H    4.193953   1.100186   1.788350   1.773010   0.000000
 Stoichiometry    C20H25N3O2
 Framework group  C1[X(C20H25N3O2)]
 Deg. of freedom   144
 Full point group                 C1      NOp   1
 Largest Abelian subgroup         C1      NOp   1
 Largest concise Abelian subgroup C1      NOp   1
                         Standard orientation:                         
 ---------------------------------------------------------------------
 Center     Atomic      Atomic             Coordinates (Angstroms)
 Number     Number       Type             X           Y           Z
 ---------------------------------------------------------------------
      1          8           0       -2.848067   -2.423330   -0.739910
      2          6           0        1.004555    0.454033   -0.388587
      3          6           0        1.858538   -0.717878   -0.305773
      4          8           0       -3.518156    2.088124   -0.819549
      5          7           0        3.176285   -0.557492   -0.173768
      6          1           0        3.566548    0.376223   -0.020308
      7          6           0       -0.923286   -1.069121   -0.571703
      8          7           0       -3.178590   -0.172768   -0.768673
      9          6           0       -0.402583    0.242070   -0.519723
     10          6           0        1.285754   -2.031130   -0.365756
     11          1           0        1.942316   -2.898966   -0.297569
     12          6           0       -1.284803    1.351999   -0.601913
     13          6           0       -0.753528    2.672289   -0.553128
     14          1           0       -1.437074    3.519992   -0.614459
     15          6           0        0.604403    2.862483   -0.429519
     16          1           0        1.010084    3.876346   -0.392626
     17          6           0       -2.712172    1.154926   -0.735422
     18          6           0        1.498747    1.765710   -0.348993
     19          1           0        2.565847    1.974129   -0.259995
     20          6           0       -2.371868   -1.288508   -0.698981
     21          6           0       -4.623292   -0.399797   -0.861952
     22          1           0       -4.784773   -1.223417   -1.569544
     23          1           0       -5.059195    0.511889   -1.285000
     24          6           0       -0.065625   -2.207510   -0.495936
     25          1           0       -0.502273   -3.204872   -0.537863
     26          6           0       -5.272675   -0.732473    0.479547
     27          1           0       -6.347227   -0.895310    0.288242
     28          1           0       -4.875476   -1.694114    0.845267
     29          6           0       -5.101255    0.334754    1.557453
     30          1           0       -5.485907    1.298977    1.184693
     31          1           0       -4.025631    0.490229    1.750835
     32          6           0       -5.797049   -0.030972    2.862781
     33          1           0       -5.406362   -0.977568    3.270992
     34          1           0       -6.882325   -0.156931    2.716029
     35          1           0       -5.652054    0.747451    3.627949
     36          6           0        4.182374   -1.584333   -0.040074
     37          1           0        4.074680   -2.095501    0.933768
     38          1           0        4.066957   -2.351930   -0.820642
     39          6           0        5.552242   -0.923434   -0.178278
     40          1           0        6.331979   -1.661207    0.102386
     41          1           0        5.711141   -0.669448   -1.237542
     42          7           0        5.638584    0.306194    0.591179
     43          6           0        6.735552    1.147994    0.154357
     44          1           0        6.718937    2.101127    0.704162
     45          1           0        7.728973    0.678744    0.319118
     46          1           0        6.639620    1.372801   -0.918548
     47          6           0        5.675444    0.076484    2.023703
     48          1           0        6.570803   -0.500522    2.339187
     49          1           0        5.686646    1.039450    2.555559
     50          1           0        4.782762   -0.472981    2.357792
 ---------------------------------------------------------------------
 Rotational constants (GHZ):           0.4807250           0.0981888           0.0910588
 Standard basis: def2SVP (5D, 7F)
 There are   500 symmetry adapted cartesian basis functions of A   symmetry.
 There are   475 symmetry adapted basis functions of A   symmetry.
   475 basis functions,   800 primitive gaussians,   500 cartesian basis functions
    91 alpha electrons       91 beta electrons
       nuclear repulsion energy      2160.3278505043 Hartrees.
 NAtoms=   50 NActive=   50 NUniq=   50 SFac= 1.00D+00 NAtFMM=   60 NAOKFM=F Big=F
 Integral buffers will be    131072 words long.
 Raffenetti 1 integral format.
 Two-electron integral symmetry is turned on.
 Nuclear repulsion after empirical dispersion term =     2160.2880927580 Hartrees.
 ------------------------------------------------------------------------------
 Polarizable Continuum Model (PCM)
 =================================
 Model                : PCM.
 Atomic radii         : SMD-Coulomb.
 Polarization charges : Total charges.
 Charge compensation  : None.
 Solution method      : On-the-fly selection.
 Cavity type          : VdW (van der Waals Surface) (Alpha=1.000).
 Cavity algorithm     : GePol (No added spheres)
                        Default sphere list used, NSphG=   50.
                        Lebedev-Laikov grids with approx.  5.0 points / Ang**2.
                        Smoothing algorithm: York/Karplus (Gamma=1.0000).
                        Polarization charges: spherical gaussians, with
                                              point-specific exponents (IZeta= 3).
                        Self-potential: point-specific (ISelfS= 7).
                        Self-field    : sphere-specific E.n sum rule (ISelfD= 2).
 1st derivatives      : Analytical E(r).r(x)/FMM algorithm (CHGder, D1EAlg=3).
                        Cavity 1st derivative terms included.
 Solvent              : Ethanol, Eps=  24.852000 Eps(inf)=   1.852593
 ------------------------------------------------------------------------------
 ------------------------------------------------------------------------------
 Atomic radii for non-electrostatic terms: SMD-CDS.
 ------------------------------------------------------------------------------
 Nuclear repulsion after PCM non-electrostatic terms =     2160.2851640992 Hartrees.
 One-electron integrals computed using PRISM.
   1 Symmetry operations used in ECPInt.
 ECPInt:  NShTT=   25425 NPrTT=   90925 LenC2=   20913 LenP2D=   50493.
 LDataN:  DoStor=T MaxTD1= 4 Len=   56
 NBasis=   475 RedAO= T EigKep=  2.23D-04  NBF=   475
 NBsUse=   475 1.00D-06 EigRej= -1.00D+00 NBFU=   475
 Initial guess from the checkpoint file:  "0602_wB97XD_EtOH.chk"
 B after Tr=    -0.000000   -0.000000    0.000000
         Rot=    1.000000   -0.000000    0.000000    0.000000 Ang=   0.00 deg.
 Requested convergence on RMS density matrix=1.00D-08 within 128 cycles.
 Requested convergence on MAX density matrix=1.00D-06.
 Requested convergence on             energy=1.00D-06.
 No special actions if energy rises.
 Inv3:  Mode=1 IEnd=    36289452.
 Iteration    1 A*A^-1 deviation from unit magnitude is 6.11D-15 for   3476.
 Iteration    1 A*A^-1 deviation from orthogonality  is 2.90D-15 for   3448   2477.
 Iteration    1 A^-1*A deviation from unit magnitude is 5.88D-15 for   3476.
 Iteration    1 A^-1*A deviation from orthogonality  is 1.19D-12 for   3139   3053.
 Error on total polarization charges =  0.06080
 SCF Done:  E(RwB97XD) =  -1090.85742499     A.U. after    1 cycles
            NFock=  1  Conv=0.19D-08     -V/T= 2.0111
 SMD-CDS (non-electrostatic) energy       (kcal/mol) =      -1.84
 (included in total energy above)
 DoSCS=F DFT=T ScalE2(SS,OS)=  1.000000  1.000000
 ExpMin= 1.22D-01 ExpMax= 2.27D+03 ExpMxC= 3.41D+02 IAcc=3 IRadAn=         5 AccDes= 0.00D+00
 HarFok:  IExCor=  205 AccDes= 0.00D+00 IRadAn=         5 IDoV=-2 UseB2=F ITyADJ=14
 ICtDFT= 12500011 ScaDFX=  1.000000  1.000000  1.000000  1.000000
 GSVD:  LWork=        -825 too small for GESVD, short by        3500 words or        3500 for optimal perf.
 Range of M.O.s used for correlation:    26   475
 NBasis=   475 NAE=    91 NBE=    91 NFC=    25 NFV=     0
 NROrb=    450 NOA=    66 NOB=    66 NVA=   384 NVB=   384

 **** Warning!!: The largest alpha MO coefficient is  0.14050413D+02

 NEqPCM:  Using equilibrium solvation (IEInf=0, Eps=  24.8520, EpsInf=   1.8526)
 Orbital symmetries:
       Occupied  (A) (A) (A) (A) (A) (A) (A) (A) (A) (A) (A) (A)
                 (A) (A) (A) (A) (A) (A) (A) (A) (A) (A) (A) (A)
                 (A) (A) (A) (A) (A) (A) (A) (A) (A) (A) (A) (A)
                 (A) (A) (A) (A) (A) (A) (A) (A) (A) (A) (A) (A)
                 (A) (A) (A) (A) (A) (A) (A) (A) (A) (A) (A) (A)
                 (A) (A) (A) (A) (A) (A) (A) (A) (A) (A) (A) (A)
                 (A) (A) (A) (A) (A) (A) (A) (A) (A) (A) (A) (A)
                 (A) (A) (A) (A) (A) (A) (A)
       Virtual   (A) (A) (A) (A) (A) (A) (A) (A) (A) (A) (A) (A)
                 (A) (A) (A) (A) (A) (A) (A) (A) (A) (A) (A) (A)
                 (A) (A) (A) (A) (A) (A) (A) (A) (A) (A) (A) (A)
                 (A) (A) (A) (A) (A) (A) (A) (A) (A) (A) (A) (A)
                 (A) (A) (A) (A) (A) (A) (A) (A) (A) (A) (A) (A)
                 (A) (A) (A) (A) (A) (A) (A) (A) (A) (A) (A) (A)
                 (A) (A) (A) (A) (A) (A) (A) (A) (A) (A) (A) (A)
                 (A) (A) (A) (A) (A) (A) (A) (A) (A) (A) (A) (A)
                 (A) (A) (A) (A) (A) (A) (A) (A) (A) (A) (A) (A)
                 (A) (A) (A) (A) (A) (A) (A) (A) (A) (A) (A) (A)
                 (A) (A) (A) (A) (A) (A) (A) (A) (A) (A) (A) (A)
                 (A) (A) (A) (A) (A) (A) (A) (A) (A) (A) (A) (A)
                 (A) (A) (A) (A) (A) (A) (A) (A) (A) (A) (A) (A)
                 (A) (A) (A) (A) (A) (A) (A) (A) (A) (A) (A) (A)
                 (A) (A) (A) (A) (A) (A) (A) (A) (A) (A) (A) (A)
                 (A) (A) (A) (A) (A) (A) (A) (A) (A) (A) (A) (A)
                 (A) (A) (A) (A) (A) (A) (A) (A) (A) (A) (A) (A)
                 (A) (A) (A) (A) (A) (A) (A) (A) (A) (A) (A) (A)
                 (A) (A) (A) (A) (A) (A) (A) (A) (A) (A) (A) (A)
                 (A) (A) (A) (A) (A) (A) (A) (A) (A) (A) (A) (A)
                 (A) (A) (A) (A) (A) (A) (A) (A) (A) (A) (A) (A)
                 (A) (A) (A) (A) (A) (A) (A) (A) (A) (A) (A) (A)
                 (A) (A) (A) (A) (A) (A) (A) (A) (A) (A) (A) (A)
                 (A) (A) (A) (A) (A) (A) (A) (A) (A) (A) (A) (A)
                 (A) (A) (A) (A) (A) (A) (A) (A) (A) (A) (A) (A)
                 (A) (A) (A) (A) (A) (A) (A) (A) (A) (A) (A) (A)
                 (A) (A) (A) (A) (A) (A) (A) (A) (A) (A) (A) (A)
                 (A) (A) (A) (A) (A) (A) (A) (A) (A) (A) (A) (A)
                 (A) (A) (A) (A) (A) (A) (A) (A) (A) (A) (A) (A)
                 (A) (A) (A) (A) (A) (A) (A) (A) (A) (A) (A) (A)
                 (A) (A) (A) (A) (A) (A) (A) (A) (A) (A) (A) (A)
                 (A) (A) (A) (A) (A) (A) (A) (A) (A) (A) (A) (A)
 Generating guess from checkpoint file densities.
 Convergence on wavefunction:    0.000001000000000
 Iteration     1 Dimension     6 NMult     0 NNew      6
 CISAX will form     6 AO SS matrices at one time.
 Iteration     2 Dimension    12 NMult     6 NNew      6
 Iteration     3 Dimension    18 NMult    12 NNew      6
 Iteration     4 Dimension    24 NMult    18 NNew      6
 Iteration     5 Dimension    30 NMult    24 NNew      6
 Iteration     6 Dimension    36 NMult    30 NNew      6
 Iteration     7 Dimension    42 NMult    36 NNew      6
 Iteration     8 Dimension    48 NMult    42 NNew      6
 Iteration     9 Dimension    54 NMult    48 NNew      6
 Iteration    10 Dimension    60 NMult    54 NNew      6
 Iteration    11 Dimension    66 NMult    60 NNew      6
 Iteration    12 Dimension    70 NMult    66 NNew      4
 Iteration    13 Dimension    74 NMult    70 NNew      4
 Iteration    14 Dimension    76 NMult    74 NNew      2
 Iteration    15 Dimension    78 NMult    76 NNew      2
 Iteration    16 Dimension    80 NMult    78 NNew      2
 Iteration    17 Dimension    82 NMult    80 NNew      2
 Iteration    18 Dimension    84 NMult    82 NNew      2
 Iteration    19 Dimension    86 NMult    84 NNew      2
 PCM Corrected Linear-Response:
 The state of interest is root number   1
 Excitation energy =    3.0602 eV, Total energy =  -1090.74496297    
 Recompute the excitation energies using the linear response reaction field.
 Convergence on wavefunction:    0.000001000000000
 Iteration     1 Dimension     6 NMult     0 NNew      6
 Iteration     2 Dimension    12 NMult     6 NNew      6
 Iteration     3 Dimension    18 NMult    12 NNew      6
 Iteration     4 Dimension    24 NMult    18 NNew      6
 Iteration     5 Dimension    30 NMult    24 NNew      6
 Iteration     6 Dimension    36 NMult    30 NNew      6
 Iteration     7 Dimension    42 NMult    36 NNew      6
 Iteration     8 Dimension    48 NMult    42 NNew      6
 Iteration     9 Dimension    54 NMult    48 NNew      6
 Iteration    10 Dimension    60 NMult    54 NNew      6
 Iteration    11 Dimension    64 NMult    60 NNew      4
 Iteration    12 Dimension    68 NMult    64 NNew      4
 Iteration    13 Dimension    70 NMult    68 NNew      2
 Iteration    14 Dimension    72 NMult    70 NNew      2
 Iteration    15 Dimension    74 NMult    72 NNew      2
 Iteration    16 Dimension    76 NMult    74 NNew      2
 Iteration    17 Dimension    78 NMult    76 NNew      2
 ***********************************************************************
 Excited states from <AA,BB:AA,BB> singles matrix:
 ***********************************************************************
 
 Ground to excited state transition densities written to RWF  633
 Ground to excited state transition electric dipole moments (Au):
       state          X           Y           Z        Dip. S.      Osc.
         1         2.8848     -0.5767      0.2729      8.7292      0.6020
         2        -0.0445      0.3976     -0.0062      0.1601      0.0165
         3        -0.6630     -0.7446     -0.0973      1.0035      0.1114
 Ground to excited state transition velocity dipole moments (Au):
       state          X           Y           Z        Dip. S.      Osc.
         1        -0.3049      0.0698     -0.0292      0.0987      0.6360
         2         0.0081     -0.0650      0.0014      0.0043      0.0186
         3         0.1029      0.1251      0.0162      0.0265      0.1061
 Ground to excited state transition magnetic dipole moments (Au):
       state          X           Y           Z
         1         0.0733      0.3174     -0.0621
         2        -0.1584     -0.0192      1.1300
         3         0.0150     -0.1694      1.4617
 Ground to excited state transition velocity quadrupole moments (Au):
       state          XX          YY          ZZ          XY          XZ          YZ
         1        -0.3132      0.1806      0.0293      0.1566      0.1894     -0.0444
         2         0.0996      0.1735      0.0038     -0.3973      0.0061      0.0238
         3         1.1552     -0.0779      0.0066     -0.7592      0.0579     -0.1970
 <0|del|b> * <b|rxdel|0> + <0|del|b> * <b|delr+rdel|0>
 Rotatory Strengths (R) in cgs (10**-40 erg-esu-cm/Gauss)
       state          XX          YY          ZZ    R(velocity)    E-M Angle
         1        21.1221     -8.2938     -1.7347      3.6978       89.11
         2         6.0420      2.2222     -1.4585      2.2686       88.86
         3       -36.1723     36.6878     16.6991      5.7382       89.03
 1/2[<0|r|b>*<b|rxdel|0> + (<0|rxdel|b>*<b|r|0>)*]
 Rotatory Strengths (R) in cgs (10**-40 erg-esu-cm/Gauss)
       state          XX          YY          ZZ     R(length)
         1      -149.5559    129.4274     11.9899     -2.7129
         2        -4.9886      5.3871      4.9151      1.7712
         3         7.0338    -89.1818    100.6232      6.1584
  1/2[<0|del|b>*<b|r|0> + (<0|r|b>*<b|del|0>)*] (Au)
       state          X           Y           Z        Dip. S.   Osc.(frdel)
         1        -0.8796     -0.0403     -0.0080      0.9278      0.6185
         2        -0.0004     -0.0259     -0.0000      0.0262      0.0175
         3        -0.0682     -0.0931     -0.0016      0.1629      0.1086

 Excitation energies and oscillator strengths:
 
 Excited State   1:      Singlet-A      2.8148 eV  440.47 nm  f=0.6020  <S**2>=0.000
      91 -> 92        -0.70002
 This state for optimization and/or second-order correction.
 Total Energy, E(TD-HF/TD-DFT) =  -1090.75398154    
 Copying the excited state density for this state as the 1-particle RhoCI density.
 
 Excited State   2:      Singlet-A      4.1974 eV  295.38 nm  f=0.0165  <S**2>=0.000
      86 -> 92        -0.13024
      88 -> 92         0.39976
      91 -> 93        -0.51514
      91 -> 94        -0.17338
 
 Excited State   3:      Singlet-A      4.5315 eV  273.61 nm  f=0.1114  <S**2>=0.000
      88 -> 92         0.14059
      89 -> 92         0.41709
      91 -> 93         0.31289
      91 -> 94        -0.41157
 SavETr:  write IOETrn=   770 NScale= 10 NData=  16 NLR=1 NState=    3 LETran=      64.
 NEqPCM:  Using equilibrium solvation (IEInf=0, Eps=  24.8520, EpsInf=   1.8526)
          Differentiating once with respect to electric field.
                with respect to dipole field.
          Electric field/nuclear overlap derivatives assumed to be zero.
          There are     1 degrees of freedom in the 1st order CPHF.  IDoFFX=0 NUNeed=     1.
 LinEq1:  Iter=  0 NonCon=     1 RMS=2.27D-03 Max=1.36D-01 NDo=     1
 AX will form     1 AO Fock derivatives at one time.
 LinEq1:  Iter=  1 NonCon=     1 RMS=8.03D-04 Max=4.61D-02 NDo=     1
 LinEq1:  Iter=  2 NonCon=     1 RMS=3.74D-04 Max=2.81D-02 NDo=     1
 LinEq1:  Iter=  3 NonCon=     1 RMS=1.93D-04 Max=2.17D-02 NDo=     1
 LinEq1:  Iter=  4 NonCon=     1 RMS=9.13D-05 Max=4.52D-03 NDo=     1
 LinEq1:  Iter=  5 NonCon=     1 RMS=5.22D-05 Max=2.60D-03 NDo=     1
 LinEq1:  Iter=  6 NonCon=     1 RMS=2.60D-05 Max=1.20D-03 NDo=     1
 LinEq1:  Iter=  7 NonCon=     1 RMS=1.32D-05 Max=6.30D-04 NDo=     1
 LinEq1:  Iter=  8 NonCon=     1 RMS=5.60D-06 Max=3.59D-04 NDo=     1
 LinEq1:  Iter=  9 NonCon=     1 RMS=2.98D-06 Max=1.31D-04 NDo=     1
 LinEq1:  Iter= 10 NonCon=     1 RMS=1.23D-06 Max=5.80D-05 NDo=     1
 LinEq1:  Iter= 11 NonCon=     1 RMS=6.77D-07 Max=3.76D-05 NDo=     1
 LinEq1:  Iter= 12 NonCon=     1 RMS=2.85D-07 Max=1.21D-05 NDo=     1
 LinEq1:  Iter= 13 NonCon=     1 RMS=1.45D-07 Max=7.18D-06 NDo=     1
 LinEq1:  Iter= 14 NonCon=     1 RMS=6.86D-08 Max=4.97D-06 NDo=     1
 LinEq1:  Iter= 15 NonCon=     1 RMS=3.08D-08 Max=1.67D-06 NDo=     1
 LinEq1:  Iter= 16 NonCon=     1 RMS=1.33D-08 Max=6.58D-07 NDo=     1
 LinEq1:  Iter= 17 NonCon=     1 RMS=5.56D-09 Max=2.89D-07 NDo=     1
 LinEq1:  Iter= 18 NonCon=     1 RMS=2.11D-09 Max=1.50D-07 NDo=     1
 LinEq1:  Iter= 19 NonCon=     1 RMS=9.23D-10 Max=4.15D-08 NDo=     1
 LinEq1:  Iter= 20 NonCon=     1 RMS=3.83D-10 Max=1.82D-08 NDo=     1
 LinEq1:  Iter= 21 NonCon=     1 RMS=1.19D-10 Max=4.97D-09 NDo=     1
 LinEq1:  Iter= 22 NonCon=     1 RMS=5.96D-11 Max=2.89D-09 NDo=     1
 LinEq1:  Iter= 23 NonCon=     0 RMS=2.02D-11 Max=7.37D-10 NDo=     1
 Linear equations converged to 1.000D-10 1.000D-09 after    23 iterations.
 PCM Corrected Linear-Response - Equilibrium solvation:
 Corrected transition energy               =    2.9483          eV
 Total energy after correction             = -1090.74907859     a.u.
 NEqPCM:  Using non-equilibrium solvation (IEInf=1, Eps=  24.8520, EpsInf=   1.8526)
 Inv3:  Mode=1 IEnd=    36289452.
 Iteration    1 A*A^-1 deviation from unit magnitude is 1.04D-14 for   3474.
 Iteration    1 A*A^-1 deviation from orthogonality  is 2.79D-15 for   3463   3040.
 Iteration    1 A^-1*A deviation from unit magnitude is 1.02D-14 for   3474.
 Iteration    1 A^-1*A deviation from orthogonality  is 2.27D-12 for   3147   3053.
 End of Minotr F.D. properties file   721 does not exist.
 End of Minotr F.D. properties file   722 does not exist.
 End of Minotr F.D. properties file   788 does not exist.

 **********************************************************************

            Population analysis using the CI density.

 **********************************************************************

 Orbital symmetries:
       Occupied  (A) (A) (A) (A) (A) (A) (A) (A) (A) (A) (A) (A)
                 (A) (A) (A) (A) (A) (A) (A) (A) (A) (A) (A) (A)
                 (A) (A) (A) (A) (A) (A) (A) (A) (A) (A) (A) (A)
                 (A) (A) (A) (A) (A) (A) (A) (A) (A) (A) (A) (A)
                 (A) (A) (A) (A) (A) (A) (A) (A) (A) (A) (A) (A)
                 (A) (A) (A) (A) (A) (A) (A) (A) (A) (A) (A) (A)
                 (A) (A) (A) (A) (A) (A) (A) (A) (A) (A) (A) (A)
                 (A) (A) (A) (A) (A) (A) (A)
       Virtual   (A) (A) (A) (A) (A) (A) (A) (A) (A) (A) (A) (A)
                 (A) (A) (A) (A) (A) (A) (A) (A) (A) (A) (A) (A)
                 (A) (A) (A) (A) (A) (A) (A) (A) (A) (A) (A) (A)
                 (A) (A) (A) (A) (A) (A) (A) (A) (A) (A) (A) (A)
                 (A) (A) (A) (A) (A) (A) (A) (A) (A) (A) (A) (A)
                 (A) (A) (A) (A) (A) (A) (A) (A) (A) (A) (A) (A)
                 (A) (A) (A) (A) (A) (A) (A) (A) (A) (A) (A) (A)
                 (A) (A) (A) (A) (A) (A) (A) (A) (A) (A) (A) (A)
                 (A) (A) (A) (A) (A) (A) (A) (A) (A) (A) (A) (A)
                 (A) (A) (A) (A) (A) (A) (A) (A) (A) (A) (A) (A)
                 (A) (A) (A) (A) (A) (A) (A) (A) (A) (A) (A) (A)
                 (A) (A) (A) (A) (A) (A) (A) (A) (A) (A) (A) (A)
                 (A) (A) (A) (A) (A) (A) (A) (A) (A) (A) (A) (A)
                 (A) (A) (A) (A) (A) (A) (A) (A) (A) (A) (A) (A)
                 (A) (A) (A) (A) (A) (A) (A) (A) (A) (A) (A) (A)
                 (A) (A) (A) (A) (A) (A) (A) (A) (A) (A) (A) (A)
                 (A) (A) (A) (A) (A) (A) (A) (A) (A) (A) (A) (A)
                 (A) (A) (A) (A) (A) (A) (A) (A) (A) (A) (A) (A)
                 (A) (A) (A) (A) (A) (A) (A) (A) (A) (A) (A) (A)
                 (A) (A) (A) (A) (A) (A) (A) (A) (A) (A) (A) (A)
                 (A) (A) (A) (A) (A) (A) (A) (A) (A) (A) (A) (A)
                 (A) (A) (A) (A) (A) (A) (A) (A) (A) (A) (A) (A)
                 (A) (A) (A) (A) (A) (A) (A) (A) (A) (A) (A) (A)
                 (A) (A) (A) (A) (A) (A) (A) (A) (A) (A) (A) (A)
                 (A) (A) (A) (A) (A) (A) (A) (A) (A) (A) (A) (A)
                 (A) (A) (A) (A) (A) (A) (A) (A) (A) (A) (A) (A)
                 (A) (A) (A) (A) (A) (A) (A) (A) (A) (A) (A) (A)
                 (A) (A) (A) (A) (A) (A) (A) (A) (A) (A) (A) (A)
                 (A) (A) (A) (A) (A) (A) (A) (A) (A) (A) (A) (A)
                 (A) (A) (A) (A) (A) (A) (A) (A) (A) (A) (A) (A)
                 (A) (A) (A) (A) (A) (A) (A) (A) (A) (A) (A) (A)
                 (A) (A) (A) (A) (A) (A) (A) (A) (A) (A) (A) (A)
 The electronic state is 1-A.
 Alpha  occ. eigenvalues --  -19.24090 -19.23008 -14.49399 -14.47291 -14.44029
 Alpha  occ. eigenvalues --  -10.42044 -10.40963 -10.37260 -10.33065 -10.32946
 Alpha  occ. eigenvalues --  -10.32908 -10.32390 -10.32345 -10.32312 -10.32093
 Alpha  occ. eigenvalues --  -10.32087 -10.31901 -10.31057 -10.31041 -10.31021
 Alpha  occ. eigenvalues --  -10.29957 -10.29913 -10.28619 -10.28391 -10.27931
 Alpha  occ. eigenvalues --   -1.15084  -1.12678  -1.05859  -1.03149  -1.01725
 Alpha  occ. eigenvalues --   -0.97868  -0.92491  -0.90032  -0.87663  -0.85429
 Alpha  occ. eigenvalues --   -0.84812  -0.82175  -0.80871  -0.79214  -0.76446
 Alpha  occ. eigenvalues --   -0.75399  -0.74073  -0.72347  -0.71035  -0.70141
 Alpha  occ. eigenvalues --   -0.66683  -0.66306  -0.65251  -0.62591  -0.60672
 Alpha  occ. eigenvalues --   -0.60083  -0.58602  -0.57573  -0.57415  -0.55914
 Alpha  occ. eigenvalues --   -0.55687  -0.55059  -0.54053  -0.53623  -0.53084
 Alpha  occ. eigenvalues --   -0.52580  -0.52111  -0.51937  -0.50847  -0.50498
 Alpha  occ. eigenvalues --   -0.49462  -0.48864  -0.48749  -0.48406  -0.47691
 Alpha  occ. eigenvalues --   -0.47166  -0.46688  -0.46107  -0.44936  -0.44574
 Alpha  occ. eigenvalues --   -0.44183  -0.43717  -0.43275  -0.42367  -0.42186
 Alpha  occ. eigenvalues --   -0.42033  -0.40267  -0.40088  -0.39430  -0.36591
 Alpha  occ. eigenvalues --   -0.35252  -0.34883  -0.34114  -0.33870  -0.30168
 Alpha  occ. eigenvalues --   -0.26445
 Alpha virt. eigenvalues --   -0.02674   0.04387   0.05037   0.08539   0.13492
 Alpha virt. eigenvalues --    0.15096   0.15383   0.16616   0.16882   0.17597
 Alpha virt. eigenvalues --    0.17866   0.18237   0.18475   0.18714   0.19126
 Alpha virt. eigenvalues --    0.19402   0.20231   0.20982   0.21424   0.22338
 Alpha virt. eigenvalues --    0.22398   0.22620   0.23118   0.23912   0.23962
 Alpha virt. eigenvalues --    0.24446   0.24764   0.24947   0.25518   0.26425
 Alpha virt. eigenvalues --    0.26668   0.27297   0.27997   0.28564   0.29894
 Alpha virt. eigenvalues --    0.30164   0.30467   0.30958   0.32202   0.32425
 Alpha virt. eigenvalues --    0.32536   0.32900   0.33288   0.33567   0.34334
 Alpha virt. eigenvalues --    0.34775   0.35592   0.36073   0.36706   0.37840
 Alpha virt. eigenvalues --    0.38279   0.39154   0.41722   0.42146   0.43736
 Alpha virt. eigenvalues --    0.44590   0.45565   0.47576   0.49248   0.49586
 Alpha virt. eigenvalues --    0.49924   0.50154   0.51037   0.52129   0.52253
 Alpha virt. eigenvalues --    0.52521   0.52989   0.53350   0.53854   0.54031
 Alpha virt. eigenvalues --    0.54341   0.54973   0.55181   0.55426   0.56349
 Alpha virt. eigenvalues --    0.57183   0.58439   0.59119   0.59719   0.60696
 Alpha virt. eigenvalues --    0.62524   0.62772   0.63152   0.63743   0.65091
 Alpha virt. eigenvalues --    0.66074   0.67327   0.68221   0.69027   0.69365
 Alpha virt. eigenvalues --    0.69692   0.70316   0.70565   0.70723   0.71735
 Alpha virt. eigenvalues --    0.72159   0.72209   0.72990   0.73250   0.73641
 Alpha virt. eigenvalues --    0.73709   0.74244   0.74551   0.74649   0.74941
 Alpha virt. eigenvalues --    0.75419   0.75713   0.76079   0.76506   0.76650
 Alpha virt. eigenvalues --    0.77212   0.77460   0.77572   0.77892   0.78173
 Alpha virt. eigenvalues --    0.78557   0.78851   0.79071   0.79437   0.79687
 Alpha virt. eigenvalues --    0.80159   0.80719   0.80950   0.81496   0.81814
 Alpha virt. eigenvalues --    0.82340   0.82835   0.83064   0.83517   0.84090
 Alpha virt. eigenvalues --    0.84399   0.85147   0.86099   0.87187   0.87447
 Alpha virt. eigenvalues --    0.88849   0.90154   0.90929   0.91549   0.91906
 Alpha virt. eigenvalues --    0.93543   0.94322   0.94930   0.97675   0.98398
 Alpha virt. eigenvalues --    0.98824   0.99040   0.99691   1.00926   1.04555
 Alpha virt. eigenvalues --    1.06635   1.07704   1.08871   1.10647   1.11398
 Alpha virt. eigenvalues --    1.12622   1.13878   1.15635   1.16944   1.17633
 Alpha virt. eigenvalues --    1.18119   1.18847   1.20165   1.21018   1.22797
 Alpha virt. eigenvalues --    1.24086   1.24894   1.26630   1.26841   1.27843
 Alpha virt. eigenvalues --    1.28505   1.29182   1.30120   1.30839   1.31238
 Alpha virt. eigenvalues --    1.32098   1.32577   1.33010   1.33201   1.33973
 Alpha virt. eigenvalues --    1.35883   1.37046   1.38409   1.39801   1.40986
 Alpha virt. eigenvalues --    1.41471   1.41911   1.43541   1.44133   1.45057
 Alpha virt. eigenvalues --    1.47441   1.48246   1.49586   1.51549   1.51688
 Alpha virt. eigenvalues --    1.53183   1.55059   1.56547   1.57678   1.58263
 Alpha virt. eigenvalues --    1.58789   1.59626   1.60628   1.61712   1.62531
 Alpha virt. eigenvalues --    1.62582   1.63070   1.63576   1.66252   1.67592
 Alpha virt. eigenvalues --    1.70658   1.74167   1.74641   1.75684   1.77254
 Alpha virt. eigenvalues --    1.78276   1.78580   1.79741   1.80031   1.80737
[...]
    50  H    0.000000   0.000000  -0.000000   0.000000   0.000000  -0.000000
              31         32         33         34         35         36
     1  O    0.000008  -0.000004  -0.000021   0.000001  -0.000000   0.000000
     2  C   -0.000009   0.000000  -0.000000   0.000000  -0.000000   0.007635
     3  C   -0.000000  -0.000000   0.000000  -0.000000   0.000000  -0.046272
     4  O   -0.002369   0.000136  -0.000003  -0.000003  -0.000003   0.000000
     5  N   -0.000000  -0.000000   0.000000  -0.000000   0.000000   0.318445
     6  H    0.000000  -0.000000   0.000000  -0.000000   0.000000  -0.054208
     7  C   -0.000258  -0.000004  -0.000001  -0.000000   0.000000   0.000038
     8  N    0.006494  -0.000207   0.000041  -0.000001   0.000008   0.000000
     9  C    0.000280  -0.000001   0.000000   0.000000  -0.000000  -0.000135
    10  C    0.000000   0.000000   0.000000  -0.000000  -0.000000  -0.000417
    11  H   -0.000000  -0.000000   0.000000   0.000000   0.000000   0.006860
    12  C    0.000201   0.000014  -0.000001  -0.000000  -0.000001   0.000004
    13  C    0.000038   0.000001   0.000000  -0.000000  -0.000000   0.000000
    14  H    0.000031  -0.000000   0.000000  -0.000000  -0.000000   0.000000
    15  C   -0.000002  -0.000000   0.000000   0.000000   0.000000   0.000008
    16  H   -0.000000   0.000000  -0.000000  -0.000000  -0.000000  -0.000000
    17  C    0.004608  -0.000045  -0.000011   0.000008   0.000006  -0.000000
    18  C    0.000000   0.000000  -0.000000  -0.000000   0.000000   0.000716
    19  H   -0.000000   0.000000  -0.000000   0.000000   0.000000  -0.000127
    20  C    0.000480  -0.000060  -0.000011   0.000001   0.000002   0.000000
    21  C   -0.015938   0.008949   0.000350   0.000082  -0.000406  -0.000000
    22  H    0.000063  -0.000325   0.000001  -0.000010   0.000011  -0.000000
    23  H   -0.000702   0.000254   0.000011  -0.000033  -0.000001  -0.000000
    24  C   -0.000012   0.000000  -0.000000  -0.000000   0.000000   0.000343
    25  H    0.000000   0.000000   0.000000  -0.000000   0.000000  -0.000020
    26  C   -0.013337  -0.054296  -0.006733  -0.006411   0.006967   0.000000
    27  H    0.007985  -0.004451  -0.001410   0.006345  -0.000037  -0.000000
    28  H   -0.009093  -0.004386   0.006294  -0.001402  -0.000100   0.000000
    29  C    0.376795   0.414914  -0.021141  -0.024139  -0.016011  -0.000000
    30  H   -0.030953  -0.023361   0.007407  -0.008422  -0.005715  -0.000000
    31  H    0.667493  -0.023309  -0.008432   0.007457  -0.005785  -0.000000
    32  C   -0.023309   4.572194   0.392904   0.397193   0.389403  -0.000000
    33  H   -0.008432   0.392904   0.640555  -0.024385  -0.022205   0.000000
    34  H    0.007457   0.397193  -0.024385   0.638665  -0.022628  -0.000000
    35  H   -0.005785   0.389403  -0.022205  -0.022628   0.633454   0.000000
    36  C   -0.000000  -0.000000   0.000000  -0.000000   0.000000   4.645923
    37  H    0.000000   0.000000  -0.000000  -0.000000  -0.000000   0.379915
    38  H   -0.000000  -0.000000   0.000000   0.000000   0.000000   0.391463
    39  C    0.000000   0.000000  -0.000000  -0.000000  -0.000000   0.384487
    40  H    0.000000   0.000000  -0.000000  -0.000000  -0.000000  -0.033469
    41  H   -0.000000   0.000000  -0.000000  -0.000000  -0.000000  -0.017195
    42  N    0.000000  -0.000000   0.000000   0.000000  -0.000000  -0.075917
    43  C   -0.000000  -0.000000   0.000000   0.000000   0.000000   0.009537
    44  H   -0.000000  -0.000000   0.000000   0.000000   0.000000  -0.000334
    45  H    0.000000   0.000000  -0.000000   0.000000  -0.000000  -0.000634
    46  H   -0.000000   0.000000  -0.000000   0.000000  -0.000000   0.000729
    47  C   -0.000000  -0.000000  -0.000000   0.000000  -0.000000   0.001639
    48  H    0.000000   0.000000   0.000000  -0.000000  -0.000000  -0.005747
    49  H   -0.000000  -0.000000  -0.000000   0.000000   0.000000  -0.000063
    50  H   -0.000000  -0.000000   0.000000   0.000000   0.000000   0.013175
              37         38         39         40         41         42
     1  O   -0.000000   0.000000   0.000000  -0.000000  -0.000000  -0.000000
     2  C   -0.000438  -0.000476   0.000186   0.000034  -0.000092   0.000857
     3  C   -0.004706  -0.014102   0.009973  -0.000344   0.000223  -0.001541
     4  O    0.000000   0.000000   0.000000   0.000000  -0.000000  -0.000000
     5  N   -0.032737  -0.014948  -0.042290   0.004053  -0.001200  -0.021832
     6  H    0.000760   0.005631  -0.023481   0.003659  -0.002159   0.068248
     7  C   -0.000013  -0.000040   0.000004  -0.000000  -0.000000  -0.000000
     8  N    0.000000   0.000000   0.000000   0.000000  -0.000000   0.000000
     9  C    0.000008   0.000021   0.000000   0.000000  -0.000002   0.000007
    10  C    0.002441   0.005868   0.000252  -0.000024  -0.000066  -0.000123
    11  H   -0.000778  -0.000080   0.000527   0.000004  -0.000011  -0.000007
    12  C   -0.000001  -0.000000  -0.000000   0.000000   0.000000  -0.000000
    13  C    0.000000  -0.000000   0.000000   0.000000  -0.000000   0.000000
    14  H    0.000000   0.000000  -0.000000   0.000000  -0.000000   0.000000
    15  C    0.000003   0.000001   0.000002  -0.000000   0.000001  -0.000032
    16  H   -0.000000   0.000000  -0.000000  -0.000000   0.000000  -0.000001
    17  C    0.000000  -0.000000   0.000000  -0.000000   0.000000  -0.000000
    18  C   -0.000020  -0.000071  -0.000001  -0.000017   0.000057  -0.001648
    19  H    0.000033  -0.000054   0.000300   0.000011  -0.000020   0.002188
    20  C   -0.000000   0.000000  -0.000000  -0.000000  -0.000000  -0.000000
    21  C    0.000000  -0.000000  -0.000000   0.000000   0.000000  -0.000000
    22  H    0.000000  -0.000000   0.000000   0.000000   0.000000  -0.000000
    23  H   -0.000000   0.000000  -0.000000  -0.000000  -0.000000   0.000000
    24  C    0.000014   0.000912  -0.000045   0.000001  -0.000002   0.000001
    25  H    0.000007   0.000014  -0.000000  -0.000000   0.000000  -0.000000
    26  C   -0.000000   0.000000  -0.000000  -0.000000  -0.000000   0.000000
    27  H    0.000000  -0.000000   0.000000   0.000000   0.000000  -0.000000
    28  H   -0.000000   0.000000  -0.000000  -0.000000  -0.000000   0.000000
    29  C    0.000000  -0.000000  -0.000000  -0.000000   0.000000  -0.000000
    30  H    0.000000  -0.000000   0.000000   0.000000   0.000000  -0.000000
    31  H    0.000000  -0.000000   0.000000   0.000000  -0.000000   0.000000
    32  C    0.000000  -0.000000   0.000000   0.000000   0.000000  -0.000000
    33  H   -0.000000   0.000000  -0.000000  -0.000000  -0.000000   0.000000
    34  H   -0.000000   0.000000  -0.000000  -0.000000  -0.000000   0.000000
    35  H   -0.000000   0.000000  -0.000000  -0.000000  -0.000000  -0.000000
    36  C    0.379915   0.391463   0.384487  -0.033469  -0.017195  -0.075917
    37  H    0.618548  -0.030429  -0.007221  -0.006184   0.006799  -0.006068
    38  H   -0.030429   0.588762  -0.015902  -0.000101  -0.011183   0.004632
    39  C   -0.007221  -0.015902   4.619335   0.382179   0.395659   0.331158
    40  H   -0.006184  -0.000101   0.382179   0.658368  -0.025662  -0.029740
    41  H    0.006799  -0.011183   0.395659  -0.025662   0.624086  -0.031609
    42  N   -0.006068   0.004632   0.331158  -0.029740  -0.031609   6.728910
    43  C   -0.000199  -0.000157  -0.049454  -0.002697  -0.005892   0.347375
    44  H    0.000016   0.000009   0.007312  -0.000539   0.000531  -0.026631
    45  H   -0.000025   0.000022  -0.008819   0.009986  -0.002984  -0.036365
    46  H    0.000005  -0.000056  -0.003944  -0.001726   0.005898  -0.026081
    47  C    0.001669   0.000066  -0.053986  -0.007072   0.007591   0.326916
    48  H    0.000211   0.000072  -0.003391   0.011974  -0.000417  -0.037904
    49  H   -0.000207   0.000001   0.007705  -0.000150  -0.000350  -0.024705
    50  H   -0.001319   0.000151  -0.010593  -0.003201   0.000152  -0.027169
              43         44         45         46         47         48
     1  O    0.000000   0.000000  -0.000000  -0.000000  -0.000000   0.000000
     2  C   -0.000003  -0.000005   0.000002  -0.000015  -0.000059   0.000008
     3  C    0.000040   0.000003  -0.000005   0.000016  -0.000156  -0.000027
     4  O   -0.000000   0.000000  -0.000000  -0.000000  -0.000000  -0.000000
     5  N   -0.000048   0.000055  -0.000075   0.000247  -0.001155   0.000031
     6  H   -0.002649  -0.000775   0.000969  -0.001435  -0.002083   0.001494
     7  C    0.000000   0.000000  -0.000000   0.000000  -0.000000  -0.000000
     8  N    0.000000  -0.000000   0.000000  -0.000000  -0.000000   0.000000
     9  C   -0.000000  -0.000000   0.000000  -0.000000  -0.000001   0.000000
    10  C    0.000001   0.000000  -0.000000   0.000001  -0.000008  -0.000004
    11  H    0.000000   0.000000   0.000000   0.000000  -0.000008  -0.000000
    12  C   -0.000000   0.000000  -0.000000   0.000000   0.000000  -0.000000
    13  C    0.000000  -0.000000   0.000000  -0.000000  -0.000000   0.000000
    14  H   -0.000000  -0.000000   0.000000  -0.000000  -0.000000   0.000000
    15  C    0.000001   0.000002  -0.000000   0.000002   0.000002  -0.000000
    16  H   -0.000000   0.000000  -0.000000  -0.000000  -0.000000  -0.000000
    17  C    0.000000   0.000000  -0.000000   0.000000   0.000000  -0.000000
    18  C    0.000001   0.000018  -0.000005   0.000031   0.000073  -0.000009
    19  H    0.000139  -0.000009   0.000010   0.000001  -0.000089   0.000012
    20  C    0.000000   0.000000  -0.000000   0.000000   0.000000  -0.000000
    21  C   -0.000000   0.000000  -0.000000   0.000000   0.000000  -0.000000
    22  H   -0.000000  -0.000000   0.000000   0.000000  -0.000000  -0.000000
    23  H    0.000000   0.000000  -0.000000  -0.000000   0.000000  -0.000000
    24  C   -0.000000  -0.000000   0.000000  -0.000000   0.000000   0.000000
    25  H   -0.000000   0.000000  -0.000000   0.000000   0.000000  -0.000000
    26  C    0.000000  -0.000000  -0.000000  -0.000000  -0.000000   0.000000
    27  H   -0.000000   0.000000   0.000000   0.000000  -0.000000  -0.000000
    28  H    0.000000   0.000000  -0.000000  -0.000000   0.000000  -0.000000
    29  C    0.000000   0.000000  -0.000000   0.000000   0.000000  -0.000000
    30  H   -0.000000  -0.000000   0.000000   0.000000  -0.000000  -0.000000
    31  H   -0.000000  -0.000000   0.000000  -0.000000  -0.000000   0.000000
    32  C   -0.000000  -0.000000   0.000000   0.000000  -0.000000   0.000000
    33  H    0.000000   0.000000  -0.000000  -0.000000  -0.000000   0.000000
    34  H    0.000000   0.000000   0.000000   0.000000   0.000000  -0.000000
    35  H    0.000000   0.000000  -0.000000  -0.000000  -0.000000  -0.000000
    36  C    0.009537  -0.000334  -0.000634   0.000729   0.001639  -0.005747
    37  H   -0.000199   0.000016  -0.000025   0.000005   0.001669   0.000211
    38  H   -0.000157   0.000009   0.000022  -0.000056   0.000066   0.000072
    39  C   -0.049454   0.007312  -0.008819  -0.003944  -0.053986  -0.003391
    40  H   -0.002697  -0.000539   0.009986  -0.001726  -0.007072   0.011974
    41  H   -0.005892   0.000531  -0.002984   0.005898   0.007591  -0.000417
    42  N    0.347375  -0.026631  -0.036365  -0.026081   0.326916  -0.037904
    43  C    4.493930   0.402793   0.391997   0.402665  -0.044975  -0.003272
    44  H    0.402793   0.615747  -0.032103  -0.017115  -0.003259  -0.002688
    45  H    0.391997  -0.032103   0.685033  -0.031033  -0.006241   0.012622
    46  H    0.402665  -0.017115  -0.031033   0.612536   0.006744  -0.000422
    47  C   -0.044975  -0.003259  -0.006241   0.006744   4.523204   0.389412
    48  H   -0.003272  -0.002688   0.012622  -0.000422   0.389412   0.676365
    49  H   -0.004916   0.004590  -0.002546   0.000404   0.401338  -0.029149
    50  H    0.006144   0.000516  -0.000649  -0.000340   0.405956  -0.032605
              49         50
     1  O   -0.000000   0.000000
     2  C   -0.000016  -0.000163
     3  C    0.000029   0.000084
     4  O    0.000000  -0.000000
     5  N    0.000150   0.001603
     6  H   -0.001228  -0.002881
     7  C    0.000000   0.000000
     8  N   -0.000000  -0.000000
     9  C   -0.000000  -0.000007
    10  C    0.000002   0.000035
    11  H    0.000000   0.000000
    12  C    0.000000   0.000000
    13  C   -0.000000  -0.000000
    14  H   -0.000000  -0.000000
    15  C    0.000002   0.000003
    16  H    0.000000   0.000000
    17  C    0.000000   0.000000
    18  C    0.000034   0.000145
    19  H    0.000002  -0.000115
    20  C    0.000000   0.000000
    21  C    0.000000  -0.000000
    22  H    0.000000  -0.000000
    23  H    0.000000   0.000000
    24  C   -0.000000   0.000000
    25  H    0.000000   0.000000
    26  C   -0.000000   0.000000
    27  H    0.000000  -0.000000
    28  H    0.000000   0.000000
    29  C    0.000000   0.000000
    30  H    0.000000  -0.000000
    31  H   -0.000000  -0.000000
    32  C   -0.000000  -0.000000
    33  H   -0.000000   0.000000
    34  H    0.000000   0.000000
    35  H    0.000000   0.000000
    36  C   -0.000063   0.013175
    37  H   -0.000207  -0.001319
    38  H    0.000001   0.000151
    39  C    0.007705  -0.010593
    40  H   -0.000150  -0.003201
    41  H   -0.000350   0.000152
    42  N   -0.024705  -0.027169
    43  C   -0.004916   0.006144
    44  H    0.004590   0.000516
    45  H   -0.002546  -0.000649
    46  H    0.000404  -0.000340
    47  C    0.401338   0.405956
    48  H   -0.029149  -0.032605
    49  H    0.609997  -0.015437
    50  H   -0.015437   0.611443
 Mulliken charges:
               1
     1  O   -0.336952
     2  C    0.067279
     3  C    0.091577
     4  O   -0.361748
     5  N   -0.140141
     6  H    0.174938
     7  C   -0.075955
     8  N   -0.340013
     9  C    0.133377
    10  C   -0.046164
    11  H    0.061509
    12  C   -0.129782
    13  C   -0.071187
    14  H    0.024760
    15  C   -0.016936
    16  H    0.046829
    17  C    0.219243
    18  C   -0.167569
    19  H    0.037986
    20  C    0.242343
    21  C    0.153417
    22  H    0.045913
    23  H    0.042841
    24  C   -0.043139
    25  H    0.043776
    26  C   -0.078022
    27  H    0.042971
    28  H    0.028468
    29  C   -0.099824
    30  H    0.028056
    31  H    0.038265
    32  C   -0.065512
    33  H    0.036791
    34  H    0.037681
    35  H    0.043040
    36  C    0.073619
    37  H    0.079917
    38  H    0.089976
    39  C    0.080047
    40  H    0.040657
    41  H    0.057848
    42  N   -0.462920
    43  C    0.059638
    44  H    0.051867
    45  H    0.020845
    46  H    0.052887
    47  C    0.054483
    48  H    0.023435
    49  H    0.054512
    50  H    0.055072
 Sum of Mulliken charges =  -0.00000
 Mulliken charges with hydrogens summed into heavy atoms:
               1
     1  O   -0.336952
     2  C    0.067279
     3  C    0.091577
     4  O   -0.361748
     5  N    0.034797
     7  C   -0.075955
     8  N   -0.340013
     9  C    0.133377
    10  C    0.015345
    12  C   -0.129782
    13  C   -0.046427
    15  C    0.029894
    17  C    0.219243
    18  C   -0.129582
    20  C    0.242343
    21  C    0.242172
    24  C    0.000636
    26  C   -0.006584
    29  C   -0.033502
    32  C    0.052000
    36  C    0.243512
    39  C    0.178552
    42  N   -0.462920
    43  C    0.185237
    47  C    0.187502
 Electronic spatial extent (au):  <R**2>=          12206.2071
 Charge=             -0.0000 electrons
 Dipole moment (field-independent basis, Debye):
    X=             16.6464    Y=             -3.1839    Z=              2.1196  Tot=             17.0801
 Quadrupole moment (field-independent basis, Debye-Ang):
   XX=           -115.9768   YY=           -154.9553   ZZ=           -150.6497
   XY=             -2.3460   XZ=             -2.9917   YZ=              1.6911
 Traceless Quadrupole moment (field-independent basis, Debye-Ang):
   XX=             24.5505   YY=            -14.4280   ZZ=            -10.1224
   XY=             -2.3460   XZ=             -2.9917   YZ=              1.6911
 Octapole moment (field-independent basis, Debye-Ang**2):
  XXX=            308.7661  YYY=             -1.6827  ZZZ=              6.7711  XYY=            104.6776
  XXY=            -43.8208  XXZ=             24.4429  XZZ=             19.0547  YZZ=             -6.6449
  YYZ=             13.2592  XYZ=             -1.8013
 Hexadecapole moment (field-independent basis, Debye-Ang**3):
 XXXX=         -11708.6802 YYYY=          -2019.9390 ZZZZ=          -1101.6747 XXXY=             79.6994
 XXXZ=             76.0655 YYYX=            -41.2748 YYYZ=              2.8068 ZZZX=             61.2397
 ZZZY=             16.9939 XXYY=          -2636.3755 XXZZ=          -2335.6314 YYZZ=           -552.3450
 XXYZ=             44.6363 YYXZ=            -41.3822 ZZXY=              5.4943
 N-N= 2.160285164099D+03 E-N=-6.852159309099D+03  KE= 1.078926317517D+03
 1\1\GINC-NODE-2-16\SP\RwB97XD TD-FC\def2SVP\C20H25N3O2\ROOT\02-Jun-202
 2\0\\# wB97XD/def2SVP geom=check guess=read TD=(Read, NStates=3, Root=
 1) SCRF=(SMD, solvent=Ethanol, CorrectedLR, NonEq=Save)\\02_wB97XD_EtO
 H\\0,1\O,0,-2.842718562,-2.4145973339,-0.7749038083\C,0,1.0078088992,0
 .4572275924,-0.3608958852\C,0,1.8617797743,-0.715739923,-0.2945357034\
 O,0,-3.5136753169,2.0974259262,-0.7813953922\N,0,3.1789797759,-0.55733
 03154,-0.1549059916\H,0,3.5684208187,0.3737563906,0.0156561038\C,0,-0.
 9189340211,-1.0630208785,-0.5767753508\N,0,-3.1737157223,-0.1639342327
 ,-0.7671640458\C,0,-0.398771321,0.2472163052,-0.5008572003\C,0,1.28956
 62693,-2.0279140563,-0.3786860083\H,0,1.9460928632,-2.8966420959,-0.32
 25927987\C,0,-1.280964566,1.3581944434,-0.5677391064\C,0,-0.7502197128
 ,2.6775844085,-0.494824041\H,0,-1.4337504897,3.5260630456,-0.544499910
 5\C,0,0.607188032,2.8659460171,-0.3629380355\H,0,1.0124645068,3.879128
 2051,-0.3075238055\C,0,-2.7077702877,1.1631072512,-0.7098999514\C,0,1.
 5015082012,1.7681531211,-0.2974534338\H,0,2.568212743,1.9752606918,-0.
 2009619316\C,0,-2.3669716767,-1.2805270635,-0.7131594088\C,0,-4.617997
 605,-0.3896511736,-0.8696683092\H,0,-4.7766059606,-1.2013211531,-1.591
 5748593\H,0,-5.0525459269,0.5289148311,-1.2790042516\C,0,-0.0612679275
 ,-2.202351105,-0.5168848237\H,0,-0.4974963489,-3.1989560609,-0.5771725
 14\C,0,-5.2723281896,-0.7449052916,0.4636120491\H,0,-6.346112132,-0.90
 47230369,0.2655643799\H,0,-4.876256388,-1.7124665056,0.8146452373\C,0,
 -5.1052353523,0.3041281853,1.5599000085\H,0,-5.4887355846,1.2743914793
 ,1.2019181487\H,0,-4.0303859483,0.4565499142,1.7599050438\C,0,-5.80583
 19728,-0.0835738823,2.856286569\H,0,-5.4164354375,-1.0368060999,3.2500
 326055\H,0,-6.8905169163,-0.2072675964,2.7033635169\H,0,-5.6639141175,
 0.6819357322,3.6349406049\C,0,4.1848260621,-1.5860715616,-0.034669053\
 H,0,4.0736079704,-2.1135198663,0.9300526889\H,0,4.0725417019,-2.340492
 8252,-0.8284274857\C,0,5.5550317047,-0.9226775703,-0.1566195474\H,0,6.
 3339009766,-1.6649005807,0.114563472\H,0,5.7178422538,-0.650932852,-1.
 2108699325\N,0,5.638164418,0.2938903357,0.6336691436\C,0,6.7365467019,
 1.1431130596,0.215151793\H,0,6.7176183039,2.0868888975,0.7807971451\H,
 0,7.7294630917,0.6713612526,0.3757552795\H,0,6.6445858668,1.3858628685
 ,-0.8541847685\C,0,5.6697030948,0.0401959519,2.0622680586\H,0,6.564021
 0741,-0.5418433044,2.3713959708\H,0,5.6786571985,0.9941088513,2.610235
 9799\H,0,4.7759151813,-0.5149703925,2.3837375556\\Version=ES64L-G16Rev
 A.03\State=1-A\HF=-1090.857425\RMSD=1.912e-09\Dipole=6.54633,-1.265160
 6,0.837412\Quadrupole=18.2699166,-10.7688216,-7.5010951,-1.7054347,-2.
 1565687,1.196068\PG=C01 [X(C20H25N3O2)]\\@


 KNOWLEDGE IS EXPERIMENT'S DAUGHTER.
 -- LEONARDO DA VINCI, IN "PENSIERI" CA. 1492
 Job cpu time:       0 days  9 hours 13 minutes 42.7 seconds.
 Elapsed time:       0 days  0 hours 23 minutes 10.0 seconds.
 File lengths (MBytes):  RWF=   1344 Int=      0 D2E=      0 Chk=     68 Scr=      2
 Normal termination of Gaussian 16 at Thu Jun  2 18:24:21 2022.
