 Entering Gaussian System, Link 0=g16
 Initial command:
 /mnt/data/huangshiqing/prog/g16/l1.exe "/mnt/data/huangshiqing/prog/g16/scratch/Gau-32395.inp" -scrdir="/mnt/data/huangshiqing/prog/g16/scratch/"
 Entering Link 1 = /mnt/data/huangshiqing/prog/g16/l1.exe PID=     32396.
  
 Copyright (c) 1988,1990,1992,1993,1995,1998,2003,2009,2016,
            Gaussian, Inc.  All Rights Reserved.
  
 This is part of the Gaussian(R) 16 program.  It is based on
 the Gaussian(R) 09 system (copyright 2009, Gaussian, Inc.),
 the Gaussian(R) 03 system (copyright 2003, Gaussian, Inc.),
 the Gaussian(R) 98 system (copyright 1998, Gaussian, Inc.),
 the Gaussian(R) 94 system (copyright 1995, Gaussian, Inc.),
 the Gaussian 92(TM) system (copyright 1992, Gaussian, Inc.),
 the Gaussian 90(TM) system (copyright 1990, Gaussian, Inc.),
 the Gaussian 88(TM) system (copyright 1988, Gaussian, Inc.),
 the Gaussian 86(TM) system (copyright 1986, Carnegie Mellon
 University), and the Gaussian 82(TM) system (copyright 1983,
 Carnegie Mellon University). Gaussian is a federally registered
 trademark of Gaussian, Inc.
  
 This software contains proprietary and confidential information,
 including trade secrets, belonging to Gaussian, Inc.
  
 This software is provided under written license and may be
 used, copied, transmitted, or stored only in accord with that
 written license.
  
 The following legend is applicable only to US Government
 contracts under FAR:
  
                    RESTRICTED RIGHTS LEGEND
  
 Use, reproduction and disclosure by the US Government is
 subject to restrictions as set forth in subparagraphs (a)
 and (c) of the Commercial Computer Software - Restricted
 Rights clause in FAR 52.227-19.
  
 Gaussian, Inc.
 340 Quinnipiac St., Bldg. 40, Wallingford CT 06492
  
  
 ---------------------------------------------------------------
 Warning -- This program may not be used in any manner that
 competes with the business of Gaussian, Inc. or will provide
 assistance to any competitor of Gaussian, Inc.  The licensee
 of this program is prohibited from giving any competitor of
 Gaussian, Inc. access to this program.  By using this program,
 the user acknowledges that Gaussian, Inc. is engaged in the
 business of creating and licensing software in the field of
 computational chemistry and represents and warrants to the
 licensee that it is not a competitor of Gaussian, Inc. and that
 it will not use this program in any manner prohibited above.
 ---------------------------------------------------------------
  

 Cite this work as:
 Gaussian 16, Revision A.03,
 M. J. Frisch, G. W. Trucks, H. B. Schlegel, G. E. Scuseria, 
 M. A. Robb, J. R. Cheeseman, G. Scalmani, V. Barone, 
 G. A. Petersson, H. Nakatsuji, X. Li, M. Caricato, A. V. Marenich, 
 J. Bloino, B. G. Janesko, R. Gomperts, B. Mennucci, H. P. Hratchian, 
 J. V. Ortiz, A. F. Izmaylov, J. L. Sonnenberg, D. Williams-Young, 
 F. Ding, F. Lipparini, F. Egidi, J. Goings, B. Peng, A. Petrone, 
 T. Henderson, D. Ranasinghe, V. G. Zakrzewski, J. Gao, N. Rega, 
 G. Zheng, W. Liang, M. Hada, M. Ehara, K. Toyota, R. Fukuda, 
 J. Hasegawa, M. Ishida, T. Nakajima, Y. Honda, O. Kitao, H. Nakai, 
 T. Vreven, K. Throssell, J. A. Montgomery, Jr., J. E. Peralta, 
 F. Ogliaro, M. J. Bearpark, J. J. Heyd, E. N. Brothers, K. N. Kudin, 
 V. N. Staroverov, T. A. Keith, R. Kobayashi, J. Normand, 
 K. Raghavachari, A. P. Rendell, J. C. Burant, S. S. Iyengar, 
 J. Tomasi, M. Cossi, J. M. Millam, M. Klene, C. Adamo, R. Cammi, 
 J. W. Ochterski, R. L. Martin, K. Morokuma, O. Farkas, 
 J. B. Foresman, and D. J. Fox, Gaussian, Inc., Wallingford CT, 2016.
 
 ******************************************
 Gaussian 16:  ES64L-G16RevA.03 25-Dec-2016
                 2-Jun-2022 
 ******************************************
 %nprocshared=24
 Will use up to   24 processors via shared memory.
 %mem=24GB
 %oldchk=0602_wB97XD_EtOH.chk
 %chk=0702_wB97XD_EtOH.chk
 Copying data from "0602_wB97XD_EtOH.chk" to current chk file "0702_wB97XD_EtOH.chk"
 IOpt=  2 FromEx=T IUOpen= 4 IOptOp= 5 NList=   0 IFRang= 0 IUIn= 4 IUOut= 2.
 ----------------------------------------------------------------------
 # wB97XD/def2SVP geom=check guess=read SCRF=(SMD, solvent=Ethanol, Non
 Eq=Read)
 ----------------------------------------------------------------------
 1/29=2,38=1,172=1/1;
 2/12=2,40=1/2;
 3/5=43,7=101,11=2,14=-4,25=1,30=1,70=6032201,72=4,74=-58,116=-2/1,2,3;
 4/5=1/1;
 5/5=2,38=6,53=4/2;
 6/7=2,8=2,9=2,10=2,28=1/1;
 99/5=1,9=1/99;
 --------------
 02_wB97XD_EtOH
 --------------
 Structure from the checkpoint file:  "0702_wB97XD_EtOH.chk"
 Charge =  0 Multiplicity = 1
 Redundant internal coordinates found in file.  (old form).
 O,0,-2.842718562,-2.4145973339,-0.7749038083
 C,0,1.0078088992,0.4572275924,-0.3608958852
 C,0,1.8617797743,-0.715739923,-0.2945357034
 O,0,-3.5136753169,2.0974259262,-0.7813953922
 N,0,3.1789797759,-0.5573303154,-0.1549059916
 H,0,3.5684208187,0.3737563906,0.0156561038
 C,0,-0.9189340211,-1.0630208785,-0.5767753508
 N,0,-3.1737157223,-0.1639342327,-0.7671640458
 C,0,-0.398771321,0.2472163052,-0.5008572003
 C,0,1.2895662693,-2.0279140563,-0.3786860083
 H,0,1.9460928632,-2.8966420959,-0.3225927987
 C,0,-1.280964566,1.3581944434,-0.5677391064
 C,0,-0.7502197128,2.6775844085,-0.494824041
 H,0,-1.4337504897,3.5260630456,-0.5444999105
 C,0,0.607188032,2.8659460171,-0.3629380355
 H,0,1.0124645068,3.8791282051,-0.3075238055
 C,0,-2.7077702877,1.1631072512,-0.7098999514
 C,0,1.5015082012,1.7681531211,-0.2974534338
 H,0,2.568212743,1.9752606918,-0.2009619316
 C,0,-2.3669716767,-1.2805270635,-0.7131594088
 C,0,-4.617997605,-0.3896511736,-0.8696683092
 H,0,-4.7766059606,-1.2013211531,-1.5915748593
 H,0,-5.0525459269,0.5289148311,-1.2790042516
 C,0,-0.0612679275,-2.202351105,-0.5168848237
 H,0,-0.4974963489,-3.1989560609,-0.577172514
 C,0,-5.2723281896,-0.7449052916,0.4636120491
 H,0,-6.346112132,-0.9047230369,0.2655643799
 H,0,-4.876256388,-1.7124665056,0.8146452373
 C,0,-5.1052353523,0.3041281853,1.5599000085
 H,0,-5.4887355846,1.2743914793,1.2019181487
 H,0,-4.0303859483,0.4565499142,1.7599050438
 C,0,-5.8058319728,-0.0835738823,2.856286569
 H,0,-5.4164354375,-1.0368060999,3.2500326055
 H,0,-6.8905169163,-0.2072675964,2.7033635169
 H,0,-5.6639141175,0.6819357322,3.6349406049
 C,0,4.1848260621,-1.5860715616,-0.034669053
 H,0,4.0736079704,-2.1135198663,0.9300526889
 H,0,4.0725417019,-2.3404928252,-0.8284274857
 C,0,5.5550317047,-0.9226775703,-0.1566195474
 H,0,6.3339009766,-1.6649005807,0.114563472
 H,0,5.7178422538,-0.650932852,-1.2108699325
 N,0,5.638164418,0.2938903357,0.6336691436
 C,0,6.7365467019,1.1431130596,0.215151793
 H,0,6.7176183039,2.0868888975,0.7807971451
 H,0,7.7294630917,0.6713612526,0.3757552795
 H,0,6.6445858668,1.3858628685,-0.8541847685
 C,0,5.6697030948,0.0401959519,2.0622680586
 H,0,6.5640210741,-0.5418433044,2.3713959708
 H,0,5.6786571985,0.9941088513,2.6102359799
 H,0,4.7759151813,-0.5149703925,2.3837375556
 Recover connectivity data from disk.
                           ----------------------------
                           !    Current Parameters    !
                           ! (Angstroms and Degrees)  !
 --------------------------                            --------------------------
 ! Name  Definition              Value                                          !
 --------------------------------------------------------------------------------
 ! R1    R(1,20)                 1.2314                                         !
 ! R2    R(2,3)                  1.4524                                         !
 ! R3    R(2,9)                  1.429                                          !
 ! R4    R(2,18)                 1.4022                                         !
 ! R5    R(3,5)                  1.334                                          !
 ! R6    R(3,10)                 1.434                                          !
 ! R7    R(4,17)                 1.2359                                         !
 ! R8    R(5,6)                  1.0236                                         !
 ! R9    R(5,36)                 1.4438                                         !
 ! R10   R(7,9)                  1.4118                                         !
 ! R11   R(7,20)                 1.4706                                         !
 ! R12   R(7,24)                 1.4273                                         !
 ! R13   R(8,17)                 1.4076                                         !
 ! R14   R(8,20)                 1.3786                                         !
 ! R15   R(8,21)                 1.4654                                         !
 ! R16   R(9,12)                 1.4202                                         !
 ! R17   R(10,11)                1.0903                                         !
 ! R18   R(10,24)                1.369                                          !
 ! R19   R(12,13)                1.424                                          !
 ! R20   R(12,17)                1.4471                                         !
 ! R21   R(13,14)                1.0907                                         !
 ! R22   R(13,15)                1.3767                                         !
 ! R23   R(15,16)                1.0926                                         !
 ! R24   R(15,18)                1.4175                                         !
 ! R25   R(18,19)                1.0909                                         !
 ! R26   R(21,22)                1.0978                                         !
 ! R27   R(21,23)                1.0955                                         !
 ! R28   R(21,26)                1.5271                                         !
 ! R29   R(24,25)                1.0896                                         !
 ! R30   R(26,27)                1.1035                                         !
 ! R31   R(26,28)                1.1028                                         !
 ! R32   R(26,29)                1.5265                                         !
 ! R33   R(29,30)                1.103                                          !
 ! R34   R(29,31)                1.1039                                         !
 ! R35   R(29,32)                1.5237                                         !
 ! R36   R(32,33)                1.1024                                         !
 ! R37   R(32,34)                1.1024                                         !
 ! R38   R(32,35)                1.1011                                         !
 ! R39   R(36,37)                1.1051                                         !
 ! R40   R(36,38)                1.1008                                         !
 ! R41   R(36,39)                1.5272                                         !
 ! R42   R(39,40)                1.1095                                         !
 ! R43   R(39,41)                1.1008                                         !
 ! R44   R(39,42)                1.4531                                         !
 ! R45   R(42,43)                1.4501                                         !
 ! R46   R(42,47)                1.4513                                         !
 ! R47   R(43,44)                1.1005                                         !
 ! R48   R(43,45)                1.111                                          !
 ! R49   R(43,46)                1.1004                                         !
 ! R50   R(47,48)                1.1109                                         !
 ! R51   R(47,49)                1.1001                                         !
 ! R52   R(47,50)                1.1002                                         !
 ! A1    A(3,2,9)              117.6787                                         !
 ! A2    A(3,2,18)             123.0879                                         !
 ! A3    A(9,2,18)             119.2331                                         !
 ! A4    A(2,3,5)              119.3034                                         !
 ! A5    A(2,3,10)             120.1121                                         !
 ! A6    A(5,3,10)             120.5845                                         !
 ! A7    A(3,5,6)              120.0754                                         !
 ! A8    A(3,5,36)             127.7342                                         !
 ! A9    A(6,5,36)             111.6671                                         !
 ! A10   A(9,7,20)             120.3344                                         !
 ! A11   A(9,7,24)             121.1428                                         !
 ! A12   A(20,7,24)            118.522                                          !
 ! A13   A(17,8,20)            124.6302                                         !
 ! A14   A(17,8,21)            118.3138                                         !
 ! A15   A(20,8,21)            117.0482                                         !
 ! A16   A(2,9,7)              120.2861                                         !
 ! A17   A(2,9,12)             120.0699                                         !
 ! A18   A(7,9,12)             119.6438                                         !
 ! A19   A(3,10,11)            119.0632                                         !
 ! A20   A(3,10,24)            121.0808                                         !
 ! A21   A(11,10,24)           119.854                                          !
 ! A22   A(9,12,13)            119.3972                                         !
 ! A23   A(9,12,17)            120.7726                                         !
 ! A24   A(13,12,17)           119.8301                                         !
 ! A25   A(12,13,14)           119.0039                                         !
 ! A26   A(12,13,15)           119.9436                                         !
 ! A27   A(14,13,15)           121.0525                                         !
 ! A28   A(13,15,16)           119.8302                                         !
 ! A29   A(13,15,18)           121.3676                                         !
 ! A30   A(16,15,18)           118.8022                                         !
 ! A31   A(4,17,8)             119.6358                                         !
 ! A32   A(4,17,12)            123.1403                                         !
 ! A33   A(8,17,12)            117.2239                                         !
 ! A34   A(2,18,15)            119.9873                                         !
 ! A35   A(2,18,19)            121.7192                                         !
 ! A36   A(15,18,19)           118.2932                                         !
 ! A37   A(1,20,7)             121.4188                                         !
 ! A38   A(1,20,8)             121.191                                          !
 ! A39   A(7,20,8)             117.3901                                         !
 ! A40   A(8,21,22)            107.5949                                         !
 ! A41   A(8,21,23)            106.734                                          !
 ! A42   A(8,21,26)            113.395                                          !
 ! A43   A(22,21,23)           108.4772                                         !
 ! A44   A(22,21,26)           109.8913                                         !
 ! A45   A(23,21,26)           110.5683                                         !
 ! A46   A(7,24,10)            119.698                                          !
 ! A47   A(7,24,25)            119.1583                                         !
 ! A48   A(10,24,25)           121.1429                                         !
 ! A49   A(21,26,27)           107.0936                                         !
 ! A50   A(21,26,28)           109.1545                                         !
 ! A51   A(21,26,29)           114.8504                                         !
 ! A52   A(27,26,28)           106.2316                                         !
 ! A53   A(27,26,29)           109.5678                                         !
 ! A54   A(28,26,29)           109.5731                                         !
 ! A55   A(26,29,30)           109.4732                                         !
 ! A56   A(26,29,31)           109.3655                                         !
 ! A57   A(26,29,32)           112.6952                                         !
 ! A58   A(30,29,31)           106.0148                                         !
 ! A59   A(30,29,32)           109.882                                          !
 ! A60   A(31,29,32)           109.1888                                         !
 ! A61   A(29,32,33)           111.191                                          !
 ! A62   A(29,32,34)           111.2807                                         !
 ! A63   A(29,32,35)           111.4377                                         !
 ! A64   A(33,32,34)           107.4623                                         !
 ! A65   A(33,32,35)           107.6403                                         !
 ! A66   A(34,32,35)           107.6333                                         !
 ! A67   A(5,36,37)            110.0395                                         !
 ! A68   A(5,36,38)            110.9288                                         !
 ! A69   A(5,36,39)            107.9923                                         !
 ! A70   A(37,36,38)           106.9838                                         !
 ! A71   A(37,36,39)           111.5505                                         !
 ! A72   A(38,36,39)           109.3675                                         !
 ! A73   A(36,39,40)           108.6454                                         !
 ! A74   A(36,39,41)           108.4451                                         !
 ! A75   A(36,39,42)           111.8125                                         !
 ! A76   A(40,39,41)           107.1806                                         !
 ! A77   A(40,39,42)           112.7662                                         !
 ! A78   A(41,39,42)           107.8016                                         !
 ! A79   A(39,42,43)           112.1277                                         !
 ! A80   A(39,42,47)           112.9701                                         !
 ! A81   A(43,42,47)           111.7163                                         !
 ! A82   A(42,43,44)           109.9298                                         !
 ! A83   A(42,43,45)           112.7413                                         !
 ! A84   A(42,43,46)           110.2648                                         !
 ! A85   A(44,43,45)           107.7726                                         !
 ! A86   A(44,43,46)           107.9911                                         !
 ! A87   A(45,43,46)           107.99                                           !
 ! A88   A(42,47,48)           112.5192                                         !
 ! A89   A(42,47,49)           109.8103                                         !
 ! A90   A(42,47,50)           110.9885                                         !
 ! A91   A(48,47,49)           108.0072                                         !
 ! A92   A(48,47,50)           107.9577                                         !
 ! A93   A(49,47,50)           107.3744                                         !
 ! D1    D(9,2,3,5)           -179.5535                                         !
 ! D2    D(9,2,3,10)             0.4438                                         !
 ! D3    D(18,2,3,5)             0.6111                                         !
 ! D4    D(18,2,3,10)         -179.3916                                         !
 ! D5    D(3,2,9,7)             -0.3048                                         !
 ! D6    D(3,2,9,12)           179.8556                                         !
 ! D7    D(18,2,9,7)           179.5371                                         !
 ! D8    D(18,2,9,12)           -0.3025                                         !
 ! D9    D(3,2,18,15)         -179.7372                                         !
 ! D10   D(3,2,18,19)            0.46                                           !
 ! D11   D(9,2,18,15)            0.4299                                         !
 ! D12   D(9,2,18,19)         -179.373                                          !
 ! D13   D(2,3,5,6)              7.2583                                         !
 ! D14   D(2,3,5,36)           178.2336                                         !
 ! D15   D(10,3,5,6)          -172.7389                                         !
 ! D16   D(10,3,5,36)           -1.7636                                         !
 ! D17   D(2,3,10,11)         -179.7339                                         !
 ! D18   D(2,3,10,24)           -0.251                                          !
 ! D19   D(5,3,10,11)            0.2633                                         !
 ! D20   D(5,3,10,24)          179.7462                                         !
 ! D21   D(3,5,36,37)          -68.3271                                         !
 ! D22   D(3,5,36,38)           49.862                                          !
 ! D23   D(3,5,36,39)          169.6974                                         !
 ! D24   D(6,5,36,37)          103.2742                                         !
 ! D25   D(6,5,36,38)         -138.5367                                         !
 ! D26   D(6,5,36,39)          -18.7013                                         !
 ! D27   D(20,7,9,2)           179.6528                                         !
 ! D28   D(20,7,9,12)           -0.5069                                         !
 ! D29   D(24,7,9,2)            -0.0284                                         !
 ! D30   D(24,7,9,12)          179.8118                                         !
 ! D31   D(9,7,20,1)          -179.6587                                         !
 ! D32   D(9,7,20,8)             0.2364                                         !
 ! D33   D(24,7,20,1)            0.0308                                         !
 ! D34   D(24,7,20,8)          179.9259                                         !
 ! D35   D(9,7,24,10)            0.2357                                         !
 ! D36   D(9,7,24,25)          179.9186                                         !
 ! D37   D(20,7,24,10)        -179.4513                                         !
 ! D38   D(20,7,24,25)           0.2317                                         !
 ! D39   D(20,8,17,4)          179.1948                                         !
 ! D40   D(20,8,17,12)          -0.7967                                         !
 ! D41   D(21,8,17,4)           -1.8492                                         !
 ! D42   D(21,8,17,12)         178.1593                                         !
 ! D43   D(17,8,20,1)         -179.6642                                         !
 ! D44   D(17,8,20,7)            0.4405                                         !
 ! D45   D(21,8,20,1)            1.3678                                         !
 ! D46   D(21,8,20,7)         -178.5276                                         !
 ! D47   D(17,8,21,22)         138.4735                                         !
 ! D48   D(17,8,21,23)          22.208                                          !
 ! D49   D(17,8,21,26)         -99.7838                                         !
 ! D50   D(20,8,21,22)         -42.491                                          !
 ! D51   D(20,8,21,23)        -158.7565                                         !
 ! D52   D(20,8,21,26)          79.2516                                         !
 ! D53   D(2,9,12,13)            0.0347                                         !
 ! D54   D(2,9,12,17)          179.9776                                         !
 ! D55   D(7,9,12,13)         -179.806                                          !
 ! D56   D(7,9,12,17)            0.137                                          !
 ! D57   D(3,10,24,7)           -0.092                                          !
 ! D58   D(3,10,24,25)        -179.7685                                         !
 ! D59   D(11,10,24,7)         179.3868                                         !
 ! D60   D(11,10,24,25)         -0.2897                                         !
 ! D61   D(9,12,13,14)        -179.8597                                         !
 ! D62   D(9,12,13,15)           0.1062                                         !
 ! D63   D(17,12,13,14)          0.1968                                         !
 ! D64   D(17,12,13,15)       -179.8373                                         !
 ! D65   D(9,12,17,4)         -179.5029                                         !
 ! D66   D(9,12,17,8)            0.4883                                         !
 ! D67   D(13,12,17,4)           0.4398                                         !
 ! D68   D(13,12,17,8)        -179.5691                                         !
 ! D69   D(12,13,15,16)        179.9783                                         !
 ! D70   D(12,13,15,18)          0.0221                                         !
 ! D71   D(14,13,15,16)         -0.0566                                         !
 ! D72   D(14,13,15,18)        179.9873                                         !
 ! D73   D(13,15,18,2)          -0.2955                                         !
 ! D74   D(13,15,18,19)        179.514                                          !
 ! D75   D(16,15,18,2)         179.7479                                         !
 ! D76   D(16,15,18,19)         -0.4426                                         !
 ! D77   D(8,21,26,27)        -179.244                                          !
 ! D78   D(8,21,26,28)         -64.6369                                         !
 ! D79   D(8,21,26,29)          58.8466                                         !
 ! D80   D(22,21,26,27)        -58.7933                                         !
 ! D81   D(22,21,26,28)         55.8138                                         !
 ! D82   D(22,21,26,29)        179.2973                                         !
 ! D83   D(23,21,26,27)         60.9262                                         !
 ! D84   D(23,21,26,28)        175.5333                                         !
 ! D85   D(23,21,26,29)        -60.9831                                         !
 ! D86   D(21,26,29,30)         55.9413                                         !
 ! D87   D(21,26,29,31)        -59.8092                                         !
 ! D88   D(21,26,29,32)        178.5478                                         !
 ! D89   D(27,26,29,30)        -64.6162                                         !
 ! D90   D(27,26,29,31)        179.6333                                         !
 ! D91   D(27,26,29,32)         57.9903                                         !
 ! D92   D(28,26,29,30)        179.2014                                         !
 ! D93   D(28,26,29,31)         63.451                                          !
 ! D94   D(28,26,29,32)        -58.192                                          !
 ! D95   D(26,29,32,33)         59.3502                                         !
 ! D96   D(26,29,32,34)        -60.4118                                         !
 ! D97   D(26,29,32,35)        179.4432                                         !
 ! D98   D(30,29,32,33)       -178.2728                                         !
 ! D99   D(30,29,32,34)         61.9652                                         !
 ! D100  D(30,29,32,35)        -58.1798                                         !
 ! D101  D(31,29,32,33)        -62.3929                                         !
 ! D102  D(31,29,32,34)        177.8452                                         !
 ! D103  D(31,29,32,35)         57.7002                                         !
 ! D104  D(5,36,39,40)         169.9308                                         !
 ! D105  D(5,36,39,41)         -73.8907                                         !
 ! D106  D(5,36,39,42)          44.835                                          !
 ! D107  D(37,36,39,40)         48.8915                                         !
 ! D108  D(37,36,39,41)        165.0699                                         !
 ! D109  D(37,36,39,42)        -76.2043                                         !
 ! D110  D(38,36,39,40)        -69.2545                                         !
 ! D111  D(38,36,39,41)         46.924                                          !
 ! D112  D(38,36,39,42)        165.6498                                         !
 ! D113  D(36,39,42,43)       -161.8103                                         !
 ! D114  D(36,39,42,47)         70.8759                                         !
 ! D115  D(40,39,42,43)         75.4092                                         !
 ! D116  D(40,39,42,47)        -51.9046                                         !
 ! D117  D(41,39,42,43)        -42.7033                                         !
 ! D118  D(41,39,42,47)       -170.0171                                         !
 ! D119  D(39,42,43,44)        175.4984                                         !
 ! D120  D(39,42,43,45)        -64.2344                                         !
 ! D121  D(39,42,43,46)         56.5453                                         !
 ! D122  D(47,42,43,44)        -56.5198                                         !
 ! D123  D(47,42,43,45)         63.7474                                         !
 ! D124  D(47,42,43,46)       -175.4729                                         !
 ! D125  D(39,42,47,48)         62.6523                                         !
 ! D126  D(39,42,47,49)       -177.0126                                         !
 ! D127  D(39,42,47,50)        -58.4481                                         !
 ! D128  D(43,42,47,48)        -64.8778                                         !
 ! D129  D(43,42,47,49)         55.4573                                         !
 ! D130  D(43,42,47,50)        174.0218                                         !
 --------------------------------------------------------------------------------
                          Input orientation:                          
 ---------------------------------------------------------------------
 Center     Atomic      Atomic             Coordinates (Angstroms)
 Number     Number       Type             X           Y           Z
 ---------------------------------------------------------------------
      1          8           0       -2.842719   -2.414597   -0.774904
      2          6           0        1.007809    0.457228   -0.360896
      3          6           0        1.861780   -0.715740   -0.294536
      4          8           0       -3.513675    2.097426   -0.781395
      5          7           0        3.178980   -0.557330   -0.154906
      6          1           0        3.568421    0.373756    0.015656
      7          6           0       -0.918934   -1.063021   -0.576775
      8          7           0       -3.173716   -0.163934   -0.767164
      9          6           0       -0.398771    0.247216   -0.500857
     10          6           0        1.289566   -2.027914   -0.378686
     11          1           0        1.946093   -2.896642   -0.322593
     12          6           0       -1.280965    1.358194   -0.567739
     13          6           0       -0.750220    2.677584   -0.494824
     14          1           0       -1.433750    3.526063   -0.544500
     15          6           0        0.607188    2.865946   -0.362938
     16          1           0        1.012465    3.879128   -0.307524
     17          6           0       -2.707770    1.163107   -0.709900
     18          6           0        1.501508    1.768153   -0.297453
     19          1           0        2.568213    1.975261   -0.200962
     20          6           0       -2.366972   -1.280527   -0.713159
     21          6           0       -4.617998   -0.389651   -0.869668
     22          1           0       -4.776606   -1.201321   -1.591575
     23          1           0       -5.052546    0.528915   -1.279004
     24          6           0       -0.061268   -2.202351   -0.516885
     25          1           0       -0.497496   -3.198956   -0.577173
     26          6           0       -5.272328   -0.744905    0.463612
     27          1           0       -6.346112   -0.904723    0.265564
     28          1           0       -4.876256   -1.712467    0.814645
     29          6           0       -5.105235    0.304128    1.559900
     30          1           0       -5.488736    1.274391    1.201918
     31          1           0       -4.030386    0.456550    1.759905
     32          6           0       -5.805832   -0.083574    2.856287
     33          1           0       -5.416435   -1.036806    3.250033
     34          1           0       -6.890517   -0.207268    2.703364
     35          1           0       -5.663914    0.681936    3.634941
     36          6           0        4.184826   -1.586072   -0.034669
     37          1           0        4.073608   -2.113520    0.930053
     38          1           0        4.072542   -2.340493   -0.828427
     39          6           0        5.555032   -0.922678   -0.156620
     40          1           0        6.333901   -1.664901    0.114563
     41          1           0        5.717842   -0.650933   -1.210870
     42          7           0        5.638164    0.293890    0.633669
     43          6           0        6.736547    1.143113    0.215152
     44          1           0        6.717618    2.086889    0.780797
     45          1           0        7.729463    0.671361    0.375755
     46          1           0        6.644586    1.385863   -0.854185
     47          6           0        5.669703    0.040196    2.062268
     48          1           0        6.564021   -0.541843    2.371396
     49          1           0        5.678657    0.994109    2.610236
     50          1           0        4.775915   -0.514970    2.383738
 ---------------------------------------------------------------------
                    Distance matrix (angstroms):
                    1          2          3          4          5
     1  O    0.000000
     2  C    4.821342   0.000000
     3  C    5.024856   1.452420   0.000000
     4  O    4.561642   4.828135   6.086580   0.000000
     5  N    6.332037   2.405357   1.334019   7.227161   0.000000
     6  H    7.035809   2.589497   2.048376   7.332286   1.023562
     7  C    2.359441   2.463757   2.816493   4.094261   4.150493
     8  N    2.274885   4.246886   5.087640   2.286815   6.394244
     9  C    3.623980   1.429042   2.465754   3.633814   3.683379
    10  C    4.169207   2.501126   1.433984   6.344425   2.404699
    11  H    4.834218   3.482856   2.182712   7.413520   2.649624
    12  C    4.088514   2.468402   3.775273   2.361590   4.871424
    13  C    5.512469   2.835240   4.286876   2.838203   5.100865
    14  H    6.109805   3.925898   5.377350   2.534405   6.172776
    15  C    6.321053   2.441808   3.795676   4.212748   4.286748
    16  H    7.395395   3.422320   4.672721   4.887224   4.939559
    17  C    3.580839   3.798105   4.958163   1.235939   6.158064
    18  C    6.049435   1.402245   2.509886   5.049226   2.870906
    19  H    6.991312   2.182857   2.783754   6.110744   2.605604
    20  C    1.231366   3.812220   4.286790   3.567934   5.620697
    21  C    2.694625   5.711896   6.513419   2.722659   7.831466
    22  H    2.424647   6.142053   6.781317   3.623964   8.109876
    23  H    3.715066   6.129924   7.094099   2.252990   8.378636
    24  C    2.801444   2.870647   2.440812   5.520613   3.651894
    25  H    2.480803   3.959848   3.436922   6.098418   4.546754
    26  C    3.197623   6.447097   7.174339   3.566756   8.475987
    27  H    3.954246   7.505166   8.229150   4.258136   9.540695
    28  H    2.674870   6.380572   6.901078   4.349627   8.195194
    29  C    4.238132   6.409540   7.281371   3.351215   8.503581
    30  H    4.951552   6.731659   7.760804   2.917496   8.962448
    31  H    4.009900   5.466370   6.349221   3.068823   7.527909
    32  C    5.234430   7.554365   8.313819   4.821148   9.487812
    33  H    4.972167   7.519432   8.101819   5.449433   9.257681
    34  H    5.775406   8.497929   9.265454   5.371984  10.473157
    35  H    6.082301   7.780044   8.604089   5.111865   9.700283
    36  C    7.114829   3.791429   2.494304   8.566953   1.443777
    37  H    7.129733   4.204095   2.888873   8.844659   2.097432
    38  H    6.915864   4.175933   2.795055   8.789085   2.105173
    39  C    8.551626   4.756375   3.701615   9.578769   2.403977
    40  H    9.250056   5.752977   4.590004  10.579821   3.354527
    41  H    8.751216   4.912727   3.963974   9.641517   2.751299
    42  N    9.013621   4.738779   4.017711   9.434581   2.719194
    43  C   10.266442   5.798337   5.241991  10.342672   3.960396
    44  H   10.680994   6.046584   5.708786  10.349876   4.515462
    45  H   11.073309   6.765290   6.066552  11.392138   4.743225
    46  H   10.220505   5.734017   5.254063  10.183413   4.034280
    47  C    9.302520   5.270569   4.541612   9.831229   3.387713
    48  H   10.094214   6.271767   5.408189  10.884200   4.223854
    49  H    9.782244   5.561716   5.092135   9.859992   4.037494
    50  H    8.463402   4.762017   3.963034   9.249864   2.999451
                    6          7          8          9         10
     6  H    0.000000
     7  C    4.748859   0.000000
     8  N    6.808695   2.434881   0.000000
     9  C    4.002676   1.411756   2.817850   0.000000
    10  C    3.334172   2.418208   4.852445   2.835776   0.000000
    11  H    3.666315   3.411034   5.820462   3.926068   1.090349
    12  C    4.982570   2.448149   2.437038   1.420215   4.255479
    13  C    4.921267   3.745305   3.744560   2.455655   5.129906
    14  H    5.939068   4.617983   4.085724   3.438593   6.187941
    15  C    3.888861   4.220374   4.861976   2.808687   4.941230
    16  H    4.350286   5.312968   5.837956   3.901250   5.913966
    17  C    6.367109   2.858899   1.407630   2.492796   5.125526
    18  C    2.512868   3.735252   5.080483   2.442475   3.802847
    19  H    1.900567   4.640321   6.153575   3.446603   4.206178
    20  C    6.204572   1.470620   1.378598   2.500577   3.747096
    21  C    8.269464   3.771244   1.465403   4.282930   6.150145
    22  H    8.643121   3.991313   2.079683   4.738498   6.241218
    23  H    8.719019   4.484878   2.066887   4.726784   6.897125
    24  C    4.482697   1.427323   3.728956   2.472761   1.369044
    25  H    5.444943   2.177115   4.050877   3.448431   2.145770
    26  C    8.922495   4.487276   2.501302   5.066168   6.738994
    27  H    9.999746   5.494439   3.417513   6.106163   7.744689
    28  H    8.735175   4.244789   2.792618   5.061499   6.288157
    29  C    8.810326   4.894854   3.060241   5.138167   7.077431
    30  H    9.178804   5.432341   3.362348   5.464638   7.703824
    31  H    7.796866   4.177356   2.739519   4.282930   6.248842
    32  C    9.805863   6.052025   4.479273   6.373079   8.036802
    33  H    9.652902   5.905308   4.682901   6.394907   7.688976
    34  H   10.814376   6.866690   5.085376   7.253713   8.929028
    35  H    9.921200   6.580141   5.127876   6.709362   8.473687
    36  C    2.055095   5.159053   7.530416   4.958593   2.948915
    37  H    2.697754   5.319733   7.694487   5.255735   3.077501
    38  H    2.886826   5.158497   7.566334   5.176503   2.836358
    39  C    2.378454   6.489103   8.782909   6.077411   4.411922
    40  H    3.437119   7.310528   9.665667   7.025938   5.081376
    41  H    2.678501   6.679722   8.915932   6.222841   4.711500
    42  N    2.161517   6.804552   8.934269   6.142794   5.032489
    43  C    3.266302   8.006283  10.044233   7.226899   6.330691
    44  H    3.665748   8.371491  10.261622   7.461235   6.909396
    45  H    4.187184   8.871875  10.994694   8.186363   7.023357
    46  H    3.353174   7.954924   9.940246   7.143545   6.368376
    47  C    2.952164   7.182742   9.287271   6.590816   5.424107
    48  H    3.919369   8.059650  10.238012   7.573172   6.131169
    49  H    3.401438   7.610324   9.545282   6.868179   6.109861
    50  H    2.802800   6.441762   8.558507   5.973206   4.698363
                   11         12         13         14         15
    11  H    0.000000
    12  C    5.345805   0.000000
    13  C    6.194495   1.424007   0.000000
    14  H    7.261110   2.173370   1.090687   0.000000
    15  C    5.916225   2.424949   1.376746   2.152707   0.000000
    16  H    6.839806   3.417987   2.141459   2.482898   1.092638
    17  C    6.187893   1.447081   2.484331   2.689618   3.742859
    18  C    4.686001   2.825469   2.436452   3.430309   1.417479
    19  H    4.912969   3.915541   3.404645   4.305661   2.159902
    20  C    4.622434   2.857168   4.281145   4.899251   5.114833
    21  C    7.047807   3.779142   4.950570   5.057468   6.177237
    22  H    7.048341   4.451839   5.697417   5.883809   6.858385
    23  H    7.850485   3.926631   4.872549   4.755846   6.191404
    24  C    2.132906   3.764005   4.928378   5.890603   5.114506
    25  H    2.475345   4.624017   5.882549   6.789957   6.168408
    26  C    7.573222   4.627926   5.751652   5.830278   6.949111
    27  H    8.548353   5.609894   6.687685   6.664786   7.934818
    28  H    7.017124   4.926060   6.165341   6.414072   7.239940
    29  C    7.969312   4.501439   5.368552   5.318756   6.549198
    30  H    8.660158   4.565528   5.225076   4.956098   6.491695
    31  H    7.162332   3.713517   4.558101   4.634081   5.640811
    32  C    8.838041   5.854662   6.664319   6.611348   7.758215
    33  H    8.392226   6.116660   7.042316   7.147030   8.035488
    34  H    9.719816   6.679660   7.500268   7.366320   8.663857
    35  H    9.294111   6.109835   6.721753   6.591742   7.751107
    36  C    2.610062   6.231190   6.537980   7.613294   5.720814
    37  H    2.590120   6.554970   6.946529   8.019364   6.203465
    38  H    2.255428   6.512164   6.967885   8.050860   6.271552
    39  C    4.116858   7.218188   7.268594   8.293661   6.235174
    40  H    4.578335   8.221363   8.331464   9.365729   7.317911
    41  H    4.478654   7.309823   7.309417   8.308828   6.261486
    42  N    4.972457   7.102849   6.911364   7.864287   5.737545
    43  C    6.289455   8.058515   7.675307   8.544547   6.393073
    44  H    6.987167   8.144131   7.598996   8.382866   6.265175
    45  H    6.831230   9.085688   8.757161   9.641612   7.489237
    46  H    6.379520   7.930773   7.515373   8.362767   6.235555
    47  C    5.308281   7.547572   7.396617   8.331000   6.284548
    48  H    5.841910   8.590254   8.489879   9.434758   7.387386
    49  H    6.137708   7.659531   7.335254   8.182267   6.169549
    50  H    4.583064   6.993265   7.001192   7.966459   6.029354
                   16         17         18         19         20
    16  H    0.000000
    17  C    4.623724   0.000000
    18  C    2.166906   4.272496   0.000000
    19  H    2.460979   5.362332   1.090900   0.000000
    20  C    6.181195   2.467287   4.942914   5.934521   0.000000
    21  C    7.088059   2.466891   6.513977   7.594840   2.425958
    22  H    7.808527   3.263120   7.064506   8.122243   2.565974
    23  H    6.996575   2.494805   6.742016   7.831351   3.287335
    24  C    6.179088   4.285737   4.272625   4.946354   2.490894
    25  H    7.242373   4.891883   5.361570   6.025996   2.682126
    26  C    7.840597   3.405084   7.264953   8.325566   3.180059
    27  H    8.795585   4.297090   8.309416   9.379613   4.114935
    28  H    8.197697   3.910945   7.350330   8.369642   2.969389
    29  C    7.327629   3.411404   7.017278   8.048299   3.895641
    30  H    7.164403   3.376566   7.166270   8.208149   4.465483
    31  H    6.435732   2.889372   6.046063   7.049325   3.449700
    32  C    8.497168   4.885682   8.171425   9.149327   5.098961
    33  H    8.840440   5.278025   8.265010   9.205244   5.006548
    34  H    9.392614   5.569889   9.128706  10.132428   5.769487
    35  H    8.386841   5.277116   8.245415   9.173590   5.798885
    36  C    6.325088   7.451296   4.303496   3.914611   6.593918
    37  H    6.842078   7.707971   4.815584   4.501504   6.698887
    38  H    6.951194   7.632948   4.875768   4.613290   6.527185
    39  C    6.611734   8.539936   4.867387   4.161863   7.949587
    40  H    7.696239   9.509426   5.942023   5.246974   8.748603
    41  H    6.593790   8.633230   4.946087   4.223384   8.124551
    42  N    5.927636   8.497961   4.489139   3.598363   8.268914
    43  C    6.365853   9.489533   5.297081   4.270905   9.466247
    44  H    6.078268   9.587153   5.335918   4.265428   9.803121
    45  H    7.474939  10.505061   6.359527   5.354555  10.340870
    46  H    6.183527   9.356121   5.187229   4.170241   9.398813
    47  C    6.484072   8.895387   5.091952   4.299526   8.604385
    48  H    7.585604   9.918032   6.171538   5.377669   9.477487
    49  H    6.213696   9.021310   5.148046   4.305852   8.997281
    50  H    6.380795   8.269951   4.808657   4.213772   7.822895
                   21         22         23         24         25
    21  C    0.000000
    22  H    1.097777   0.000000
    23  H    1.095514   1.779764   0.000000
    24  C    4.916719   4.938768   5.740514   0.000000
    25  H    4.995626   4.830149   5.927737   1.089565   0.000000
    26  C    1.527086   2.162834   2.169708   5.499152   5.468511
    27  H    2.130829   2.449548   2.472716   6.464931   6.338771
    28  H    2.157186   2.461929   3.072171   5.019669   4.829115
    29  C    2.573234   3.508015   2.848277   6.003089   6.170084
    30  H    2.796193   3.799985   2.626970   6.670789   6.934585
    31  H    2.824181   3.812846   3.207026   5.292204   5.595173
    32  C    3.922674   4.700227   4.247730   6.990531   7.047884
    33  H    4.245968   4.886472   4.805837   6.650262   6.596844
    34  H    4.238415   4.889096   4.447399   7.809545   7.783497
    35  H    4.746972   5.625872   4.954194   7.546284   7.713306
    36  C    8.922912   9.103804   9.557750   4.317597   4.981952
    37  H    9.041832   9.247540   9.754439   4.381634   4.934055
    38  H    8.906905   8.954748   9.576207   4.147834   4.656752
    39  C   10.211909  10.434533  10.765109   5.771497   6.480077
    40  H   11.069736  11.250297  11.679299   6.448703   7.035610
    41  H   10.344770  10.515765  10.835033   6.023838   6.747179
    42  N   10.388268  10.754293  10.863003   6.327600   7.163271
    43  C   11.508774  11.887528  11.899262   7.611721   8.474239
    44  H   11.719790  12.188423  12.050180   8.126183   9.046663
    45  H   12.455385  12.797620  12.889464   8.351678   9.141679
    46  H   11.401687  11.733750  11.736172   7.612984   8.491563
    47  C   10.705971  11.136306  11.241422   6.672711   7.449369
    48  H   11.643247  12.031204  12.223607   7.415788   8.100576
    49  H   10.956533  11.479880  11.423717   7.276193   8.117034
    50  H    9.942130  10.369419  10.540589   5.887207   6.616618
                   26         27         28         29         30
    26  C    0.000000
    27  H    1.103529   0.000000
    28  H    1.102847   1.764771   0.000000
    29  C    1.526512   2.162499   2.162057   0.000000
    30  H    2.160900   2.521982   3.073505   1.103011   0.000000
    31  H    2.160160   3.073875   2.512697   1.103873   1.762668
    32  C    2.539070   2.770926   2.772310   1.523734   2.163690
    33  H    2.805372   3.128705   2.584458   2.179793   3.088954
    34  H    2.814973   2.593393   3.144857   2.180886   2.532714
    35  H    3.499506   3.786235   3.782543   2.181892   2.510237
    36  C    9.507555  10.557227   9.101677   9.613571  10.163129
    37  H    9.457124  10.510628   8.959589   9.512775  10.148412
    38  H    9.567751  10.573864   9.120038   9.845289  10.421503
    39  C   10.846567  11.908643  10.506136  10.867050  11.341849
    40  H   11.647866  12.703677  11.232097  11.697004  12.230965
    41  H   11.117399  12.156614  10.838104  11.212864  11.623933
    42  N   10.961153  12.049691  10.705665  10.783258  11.184462
    43  C   12.158924  13.242059  11.973760  11.947387  12.265744
    44  H   12.323899  13.411796  12.200581  11.981866  12.240612
    45  H   13.078995  14.163968  12.836644  12.894438  13.257713
    46  H   12.177422  13.238537  12.046346  12.043930  12.306806
    47  C   11.086033  12.186092  10.763162  10.789872  11.259405
    48  H   11.990831  13.085784  11.604903  11.727990  12.244808
    49  H   11.294080  12.397505  11.043364  10.856870  11.259333
    50  H   10.232641  11.328639   9.851927   9.949209  10.486256
                   31         32         33         34         35
    31  H    0.000000
    32  C    2.155457   0.000000
    33  H    2.524228   1.102414   0.000000
    34  H    3.084010   1.102373   1.777610   0.000000
    35  H    2.496992   1.101112   1.778616   1.778503   0.000000
    36  C    8.653468  10.508490  10.162440  11.491786  10.752096
    37  H    8.542168  10.268125   9.828659  11.269005  10.485720
    38  H    8.954348  10.782072  10.410289  11.713789  11.129030
    39  C    9.871959  11.783502  11.488751  12.789957  11.950542
    40  H   10.706360  12.545547  12.177688  13.554033  12.721960
    41  H   10.250852  12.233508  12.000862  13.209420  12.441977
    42  N    9.735283  11.663943  11.437670  12.708369  11.700222
    43  C   10.898829  12.876009  12.714461  13.918031  12.871638
    44  H   10.914955  12.878485  12.770664  13.933440  12.783676
    45  H   11.842975  13.781407  13.564437  14.830157  13.784228
    46  H   11.029602  13.074393  12.968506  14.085213  13.120478
    47  C    9.713727  11.503638  11.201481  12.579005  11.460192
    48  H   10.658901  12.387833  12.022825  13.462791  12.353808
    49  H    9.761022  11.537566  11.297568  12.626801  11.393042
    50  H    8.881664  10.601074  10.242402  11.674865  10.582444
                   36         37         38         39         40
    36  C    0.000000
    37  H    1.105106   0.000000
    38  H    1.100823   1.773068   0.000000
    39  C    1.527229   2.189424   2.158542   0.000000
    40  H    2.155692   2.444424   2.541535   1.109537   0.000000
    41  H    2.146642   3.070214   2.389119   1.100816   1.778885
    42  N    2.468426   2.886400   3.395420   1.453102   2.142518
    43  C    3.744614   4.267081   4.507936   2.408668   2.838518
    44  H    4.535489   4.965531   5.402568   3.359739   3.829756
    45  H    4.222429   4.629048   4.888189   2.748188   2.733850
    46  H    3.943909   4.694583   4.527891   2.646334   3.215922
    47  C    3.040847   2.909970   4.071207   2.421515   2.672464
    48  H    3.541205   3.278688   4.436381   2.748446   2.531305
    49  H    3.985522   3.880278   5.052087   3.368211   3.705139
    50  H    2.710228   2.271959   3.761020   2.688245   2.983087
                   41         42         43         44         45
    41  H    0.000000
    42  N    2.073973   0.000000
    43  C    2.507967   1.450096   0.000000
    44  H    3.530150   2.098026   1.100466   0.000000
    45  H    2.883134   2.140685   1.110957   1.786507   0.000000
    46  H    2.265969   2.102141   1.100393   1.780432   1.788917
    47  C    3.345655   1.451293   2.401337   2.632346   2.735929
    48  H    3.682465   2.139008   2.741939   3.076334   2.610115
    49  H    4.160354   2.097323   2.622549   2.370750   3.050061
    50  H    3.718456   2.111982   3.360964   3.620677   3.763352
                   46         47         48         49         50
    46  H    0.000000
    47  C    3.356622   0.000000
    48  H    3.758579   1.110916   0.000000
    49  H    3.617831   1.100136   1.788872   0.000000
    50  H    4.193953   1.100186   1.788350   1.773010   0.000000
 Stoichiometry    C20H25N3O2
 Framework group  C1[X(C20H25N3O2)]
 Deg. of freedom   144
 Full point group                 C1      NOp   1
 Largest Abelian subgroup         C1      NOp   1
 Largest concise Abelian subgroup C1      NOp   1
                         Standard orientation:                         
 ---------------------------------------------------------------------
 Center     Atomic      Atomic             Coordinates (Angstroms)
 Number     Number       Type             X           Y           Z
 ---------------------------------------------------------------------
      1          8           0       -2.848067   -2.423330   -0.739910
      2          6           0        1.004555    0.454033   -0.388587
      3          6           0        1.858538   -0.717878   -0.305773
      4          8           0       -3.518156    2.088124   -0.819549
      5          7           0        3.176285   -0.557492   -0.173768
      6          1           0        3.566548    0.376223   -0.020308
      7          6           0       -0.923286   -1.069121   -0.571703
      8          7           0       -3.178590   -0.172768   -0.768673
      9          6           0       -0.402583    0.242070   -0.519723
     10          6           0        1.285754   -2.031130   -0.365756
     11          1           0        1.942316   -2.898966   -0.297569
     12          6           0       -1.284803    1.351999   -0.601913
     13          6           0       -0.753528    2.672289   -0.553128
     14          1           0       -1.437074    3.519992   -0.614459
     15          6           0        0.604403    2.862483   -0.429519
     16          1           0        1.010084    3.876346   -0.392626
     17          6           0       -2.712172    1.154926   -0.735422
     18          6           0        1.498747    1.765710   -0.348993
     19          1           0        2.565847    1.974129   -0.259995
     20          6           0       -2.371868   -1.288508   -0.698981
     21          6           0       -4.623292   -0.399797   -0.861952
     22          1           0       -4.784773   -1.223417   -1.569544
     23          1           0       -5.059195    0.511889   -1.285000
     24          6           0       -0.065625   -2.207510   -0.495936
     25          1           0       -0.502273   -3.204872   -0.537863
     26          6           0       -5.272675   -0.732473    0.479547
     27          1           0       -6.347227   -0.895310    0.288242
     28          1           0       -4.875476   -1.694114    0.845267
     29          6           0       -5.101255    0.334754    1.557453
     30          1           0       -5.485907    1.298977    1.184693
     31          1           0       -4.025631    0.490229    1.750835
     32          6           0       -5.797049   -0.030972    2.862781
     33          1           0       -5.406362   -0.977568    3.270992
     34          1           0       -6.882325   -0.156931    2.716029
     35          1           0       -5.652054    0.747451    3.627949
     36          6           0        4.182374   -1.584333   -0.040074
     37          1           0        4.074680   -2.095501    0.933768
     38          1           0        4.066957   -2.351930   -0.820642
     39          6           0        5.552242   -0.923434   -0.178278
     40          1           0        6.331979   -1.661207    0.102386
     41          1           0        5.711141   -0.669448   -1.237542
     42          7           0        5.638584    0.306194    0.591179
     43          6           0        6.735552    1.147994    0.154357
     44          1           0        6.718937    2.101127    0.704162
     45          1           0        7.728973    0.678744    0.319118
     46          1           0        6.639620    1.372801   -0.918548
     47          6           0        5.675444    0.076484    2.023703
     48          1           0        6.570803   -0.500522    2.339187
     49          1           0        5.686646    1.039450    2.555559
     50          1           0        4.782762   -0.472981    2.357792
 ---------------------------------------------------------------------
 Rotational constants (GHZ):           0.4807250           0.0981888           0.0910588
 Standard basis: def2SVP (5D, 7F)
 There are   500 symmetry adapted cartesian basis functions of A   symmetry.
 There are   475 symmetry adapted basis functions of A   symmetry.
   475 basis functions,   800 primitive gaussians,   500 cartesian basis functions
    91 alpha electrons       91 beta electrons
       nuclear repulsion energy      2160.3278505043 Hartrees.
 NAtoms=   50 NActive=   50 NUniq=   50 SFac= 1.00D+00 NAtFMM=   60 NAOKFM=F Big=F
 Integral buffers will be    131072 words long.
 Raffenetti 2 integral format.
 Two-electron integral symmetry is turned on.
 Nuclear repulsion after empirical dispersion term =     2160.2880927580 Hartrees.
 ------------------------------------------------------------------------------
 Polarizable Continuum Model (PCM)
 =================================
 Model                : PCM.
 Atomic radii         : SMD-Coulomb.
 Polarization charges : Total charges.
 Charge compensation  : None.
 Solution method      : On-the-fly selection.
 Cavity type          : VdW (van der Waals Surface) (Alpha=1.000).
 Cavity algorithm     : GePol (No added spheres)
                        Default sphere list used, NSphG=   50.
                        Lebedev-Laikov grids with approx.  5.0 points / Ang**2.
                        Smoothing algorithm: York/Karplus (Gamma=1.0000).
                        Polarization charges: spherical gaussians, with
                                              point-specific exponents (IZeta= 3).
                        Self-potential: point-specific (ISelfS= 7).
                        Self-field    : sphere-specific E.n sum rule (ISelfD= 2).
 Solvent              : Ethanol, Eps=  24.852000 Eps(inf)=   1.852593
 ------------------------------------------------------------------------------
 ------------------------------------------------------------------------------
 Atomic radii for non-electrostatic terms: SMD-CDS.
 ------------------------------------------------------------------------------
 Nuclear repulsion after PCM non-electrostatic terms =     2160.2851640992 Hartrees.
 One-electron integrals computed using PRISM.
   1 Symmetry operations used in ECPInt.
 ECPInt:  NShTT=   25425 NPrTT=   90925 LenC2=   20913 LenP2D=   50493.
 LDataN:  DoStor=T MaxTD1= 4 Len=   56
 NBasis=   475 RedAO= T EigKep=  2.23D-04  NBF=   475
 NBsUse=   475 1.00D-06 EigRej= -1.00D+00 NBFU=   475
 Initial guess from the checkpoint file:  "0702_wB97XD_EtOH.chk"
 B after Tr=     0.000000    0.000000   -0.000000
         Rot=    1.000000   -0.000000    0.000000   -0.000000 Ang=   0.00 deg.
 Requested convergence on RMS density matrix=1.00D-08 within 128 cycles.
 Requested convergence on MAX density matrix=1.00D-06.
 Requested convergence on             energy=1.00D-06.
 No special actions if energy rises.
 Inv3:  Mode=1 IEnd=    36289452.
 Iteration    1 A*A^-1 deviation from unit magnitude is 7.11D-15 for   3476.
 Iteration    1 A*A^-1 deviation from orthogonality  is 2.82D-15 for   3448   2477.
 Iteration    1 A^-1*A deviation from unit magnitude is 6.88D-15 for   3476.
 Iteration    1 A^-1*A deviation from orthogonality  is 1.62D-12 for   3139   3053.
 NEqPCM:  Using non-equilibrium solvation (IEInf=1, Eps=  24.8520, EpsInf=   1.8526)
 Inv3:  Mode=1 IEnd=    36289452.
 Iteration    1 A*A^-1 deviation from unit magnitude is 1.04D-14 for   3474.
 Iteration    1 A*A^-1 deviation from orthogonality  is 3.03D-15 for   3463   3040.
 Iteration    1 A^-1*A deviation from unit magnitude is 1.04D-14 for   3474.
 Iteration    1 A^-1*A deviation from orthogonality  is 1.92D-12 for   3147   3053.
 Error on total polarization charges =  0.03379
 SCF Done:  E(RwB97XD) =  -1090.85554049     A.U. after   12 cycles
            NFock= 12  Conv=0.99D-08     -V/T= 2.0111
 SMD-CDS (non-electrostatic) energy       (kcal/mol) =      -1.84
 (included in total energy above)

 **********************************************************************

            Population analysis using the SCF density.

 **********************************************************************

 Orbital symmetries:
       Occupied  (A) (A) (A) (A) (A) (A) (A) (A) (A) (A) (A) (A)
                 (A) (A) (A) (A) (A) (A) (A) (A) (A) (A) (A) (A)
                 (A) (A) (A) (A) (A) (A) (A) (A) (A) (A) (A) (A)
                 (A) (A) (A) (A) (A) (A) (A) (A) (A) (A) (A) (A)
                 (A) (A) (A) (A) (A) (A) (A) (A) (A) (A) (A) (A)
                 (A) (A) (A) (A) (A) (A) (A) (A) (A) (A) (A) (A)
                 (A) (A) (A) (A) (A) (A) (A) (A) (A) (A) (A) (A)
                 (A) (A) (A) (A) (A) (A) (A)
       Virtual   (A) (A) (A) (A) (A) (A) (A) (A) (A) (A) (A) (A)
                 (A) (A) (A) (A) (A) (A) (A) (A) (A) (A) (A) (A)
                 (A) (A) (A) (A) (A) (A) (A) (A) (A) (A) (A) (A)
                 (A) (A) (A) (A) (A) (A) (A) (A) (A) (A) (A) (A)
                 (A) (A) (A) (A) (A) (A) (A) (A) (A) (A) (A) (A)
                 (A) (A) (A) (A) (A) (A) (A) (A) (A) (A) (A) (A)
                 (A) (A) (A) (A) (A) (A) (A) (A) (A) (A) (A) (A)
                 (A) (A) (A) (A) (A) (A) (A) (A) (A) (A) (A) (A)
                 (A) (A) (A) (A) (A) (A) (A) (A) (A) (A) (A) (A)
                 (A) (A) (A) (A) (A) (A) (A) (A) (A) (A) (A) (A)
                 (A) (A) (A) (A) (A) (A) (A) (A) (A) (A) (A) (A)
                 (A) (A) (A) (A) (A) (A) (A) (A) (A) (A) (A) (A)
                 (A) (A) (A) (A) (A) (A) (A) (A) (A) (A) (A) (A)
                 (A) (A) (A) (A) (A) (A) (A) (A) (A) (A) (A) (A)
                 (A) (A) (A) (A) (A) (A) (A) (A) (A) (A) (A) (A)
                 (A) (A) (A) (A) (A) (A) (A) (A) (A) (A) (A) (A)
                 (A) (A) (A) (A) (A) (A) (A) (A) (A) (A) (A) (A)
                 (A) (A) (A) (A) (A) (A) (A) (A) (A) (A) (A) (A)
                 (A) (A) (A) (A) (A) (A) (A) (A) (A) (A) (A) (A)
                 (A) (A) (A) (A) (A) (A) (A) (A) (A) (A) (A) (A)
                 (A) (A) (A) (A) (A) (A) (A) (A) (A) (A) (A) (A)
                 (A) (A) (A) (A) (A) (A) (A) (A) (A) (A) (A) (A)
                 (A) (A) (A) (A) (A) (A) (A) (A) (A) (A) (A) (A)
                 (A) (A) (A) (A) (A) (A) (A) (A) (A) (A) (A) (A)
                 (A) (A) (A) (A) (A) (A) (A) (A) (A) (A) (A) (A)
                 (A) (A) (A) (A) (A) (A) (A) (A) (A) (A) (A) (A)
                 (A) (A) (A) (A) (A) (A) (A) (A) (A) (A) (A) (A)
                 (A) (A) (A) (A) (A) (A) (A) (A) (A) (A) (A) (A)
                 (A) (A) (A) (A) (A) (A) (A) (A) (A) (A) (A) (A)
                 (A) (A) (A) (A) (A) (A) (A) (A) (A) (A) (A) (A)
                 (A) (A) (A) (A) (A) (A) (A) (A) (A) (A) (A) (A)
                 (A) (A) (A) (A) (A) (A) (A) (A) (A) (A) (A) (A)
 The electronic state is 1-A.
 Alpha  occ. eigenvalues --  -19.24505 -19.22892 -14.49586 -14.47042 -14.43699
 Alpha  occ. eigenvalues --  -10.42399 -10.40878 -10.37041 -10.33241 -10.33031
 Alpha  occ. eigenvalues --  -10.32807 -10.32512 -10.32502 -10.32484 -10.32227
 Alpha  occ. eigenvalues --  -10.31808 -10.31630 -10.31463 -10.30791 -10.30695
 Alpha  occ. eigenvalues --  -10.29761 -10.29538 -10.28782 -10.28643 -10.28096
 Alpha  occ. eigenvalues --   -1.15324  -1.12781  -1.05544  -1.03306  -1.01404
 Alpha  occ. eigenvalues --   -0.97990  -0.92496  -0.90128  -0.87782  -0.85437
 Alpha  occ. eigenvalues --   -0.84726  -0.82287  -0.80794  -0.78908  -0.76587
 Alpha  occ. eigenvalues --   -0.75263  -0.73986  -0.72497  -0.71073  -0.70126
 Alpha  occ. eigenvalues --   -0.66780  -0.66025  -0.65376  -0.62452  -0.60775
 Alpha  occ. eigenvalues --   -0.60111  -0.58612  -0.57574  -0.57166  -0.55897
 Alpha  occ. eigenvalues --   -0.55818  -0.55136  -0.53965  -0.53474  -0.53046
 Alpha  occ. eigenvalues --   -0.52494  -0.52200  -0.51996  -0.50836  -0.50467
 Alpha  occ. eigenvalues --   -0.49522  -0.48961  -0.48784  -0.48421  -0.47747
 Alpha  occ. eigenvalues --   -0.46894  -0.46457  -0.46199  -0.45036  -0.44388
 Alpha  occ. eigenvalues --   -0.44020  -0.43811  -0.42980  -0.42528  -0.42100
 Alpha  occ. eigenvalues --   -0.41869  -0.40433  -0.40248  -0.39341  -0.36894
 Alpha  occ. eigenvalues --   -0.35420  -0.34881  -0.34277  -0.33967  -0.29846
 Alpha  occ. eigenvalues --   -0.26236
 Alpha virt. eigenvalues --   -0.02865   0.04278   0.05058   0.08403   0.13720
 Alpha virt. eigenvalues --    0.14930   0.15434   0.16779   0.16816   0.17487
 Alpha virt. eigenvalues --    0.17980   0.18329   0.18593   0.18678   0.19075
 Alpha virt. eigenvalues --    0.19383   0.20482   0.21140   0.21560   0.22200
 Alpha virt. eigenvalues --    0.22351   0.22901   0.22937   0.23687   0.24277
 Alpha virt. eigenvalues --    0.24287   0.24972   0.25215   0.25414   0.26430
 Alpha virt. eigenvalues --    0.26779   0.27738   0.27999   0.28912   0.29827
 Alpha virt. eigenvalues --    0.30041   0.30457   0.30861   0.32073   0.32367
 Alpha virt. eigenvalues --    0.32561   0.32875   0.33492   0.33721   0.34238
 Alpha virt. eigenvalues --    0.34741   0.35519   0.35985   0.36796   0.38021
 Alpha virt. eigenvalues --    0.38272   0.39085   0.41600   0.41969   0.43735
 Alpha virt. eigenvalues --    0.44528   0.45608   0.47534   0.49187   0.49406
 Alpha virt. eigenvalues --    0.50109   0.50402   0.50918   0.52121   0.52214
 Alpha virt. eigenvalues --    0.52566   0.52932   0.53362   0.53819   0.53883
 Alpha virt. eigenvalues --    0.54479   0.54841   0.55237   0.55478   0.56361
 Alpha virt. eigenvalues --    0.57175   0.58401   0.59214   0.59851   0.60493
 Alpha virt. eigenvalues --    0.62522   0.62759   0.63357   0.63739   0.65057
 Alpha virt. eigenvalues --    0.66274   0.67122   0.68056   0.68883   0.69565
 Alpha virt. eigenvalues --    0.69720   0.70260   0.70653   0.70799   0.71904
 Alpha virt. eigenvalues --    0.71956   0.72368   0.72954   0.73433   0.73782
 Alpha virt. eigenvalues --    0.73826   0.74151   0.74625   0.74812   0.75001
 Alpha virt. eigenvalues --    0.75370   0.75599   0.76200   0.76497   0.76755
 Alpha virt. eigenvalues --    0.77318   0.77592   0.77688   0.77942   0.78228
 Alpha virt. eigenvalues --    0.78638   0.78889   0.78978   0.79390   0.79720
 Alpha virt. eigenvalues --    0.80118   0.80637   0.81077   0.81685   0.81928
 Alpha virt. eigenvalues --    0.82523   0.82875   0.83047   0.83399   0.84066
 Alpha virt. eigenvalues --    0.84335   0.85023   0.85997   0.87108   0.87408
 Alpha virt. eigenvalues --    0.88896   0.89915   0.91112   0.91771   0.91849
 Alpha virt. eigenvalues --    0.93492   0.94351   0.95108   0.97640   0.98620
 Alpha virt. eigenvalues --    0.99037   0.99159   0.99909   1.00927   1.04330
 Alpha virt. eigenvalues --    1.06450   1.07581   1.08918   1.10708   1.11382
 Alpha virt. eigenvalues --    1.12589   1.13826   1.15894   1.16828   1.17459
 Alpha virt. eigenvalues --    1.18151   1.19065   1.20211   1.20919   1.22721
 Alpha virt. eigenvalues --    1.24213   1.24980   1.26654   1.26851   1.28047
 Alpha virt. eigenvalues --    1.28372   1.29065   1.30151   1.30541   1.31134
 Alpha virt. eigenvalues --    1.31945   1.32561   1.32978   1.33363   1.33990
 Alpha virt. eigenvalues --    1.35608   1.37282   1.38324   1.39763   1.41325
 Alpha virt. eigenvalues --    1.41612   1.41973   1.43493   1.44238   1.44981
 Alpha virt. eigenvalues --    1.47283   1.48208   1.49578   1.51471   1.51879
 Alpha virt. eigenvalues --    1.53126   1.54977   1.56396   1.57841   1.58231
 Alpha virt. eigenvalues --    1.58693   1.59831   1.60744   1.61715   1.62511
 Alpha virt. eigenvalues --    1.62791   1.63340   1.63432   1.66618   1.68028
 Alpha virt. eigenvalues --    1.70536   1.74047   1.74576   1.75878   1.77234
 Alpha virt. eigenvalues --    1.78357   1.78616   1.79550   1.79819   1.80588
 Alpha virt. eigenvalues --    1.81943   1.82396   1.82882   1.83236   1.84135
 Alpha virt. eigenvalues --    1.84556   1.85148   1.85543   1.85878   1.86433
 Alpha virt. eigenvalues --    1.86892   1.86934   1.87166   1.88019   1.88633
 Alpha virt. eigenvalues --    1.88941   1.89350   1.89606   1.89934   1.91233
 Alpha virt. eigenvalues --    1.91563   1.91833   1.92679   1.93320   1.94375
 Alpha virt. eigenvalues --    1.94787   1.95172   1.95336   1.95820   1.96261
 Alpha virt. eigenvalues --    1.96975   1.97533   1.98280   1.98574   1.98949
 Alpha virt. eigenvalues --    2.00775   2.01698   2.01911   2.02695   2.03338
 Alpha virt. eigenvalues --    2.03540   2.04234   2.04824   2.06245   2.06653
 Alpha virt. eigenvalues --    2.07816   2.08182   2.10466   2.11007   2.11598
 Alpha virt. eigenvalues --    2.12399   2.13607   2.14510   2.14593   2.15772
 Alpha virt. eigenvalues --    2.16685   2.17506   2.18139   2.19389   2.21150
 Alpha virt. eigenvalues --    2.21907   2.22916   2.23363   2.24474   2.25500
 Alpha virt. eigenvalues --    2.26209   2.28430   2.29384   2.30787   2.30956
 Alpha virt. eigenvalues --    2.32287   2.32910   2.33784   2.34488   2.35937
 Alpha virt. eigenvalues --    2.36242   2.38928   2.39325   2.40253   2.40621
 Alpha virt. eigenvalues --    2.43937   2.44754   2.45664   2.45980   2.47391
 Alpha virt. eigenvalues --    2.47679   2.50443   2.50670   2.51032   2.52924
 Alpha virt. eigenvalues --    2.53061   2.53435   2.53856   2.56492   2.57198
 Alpha virt. eigenvalues --    2.58030   2.58825   2.59568   2.61906   2.62198
 Alpha virt. eigenvalues --    2.65000   2.65531   2.66024   2.67578   2.69015
 Alpha virt. eigenvalues --    2.69474   2.70687   2.71368   2.72582   2.73325
 Alpha virt. eigenvalues --    2.74510   2.75743   2.76717   2.77855   2.79172
 Alpha virt. eigenvalues --    2.79351   2.80364   2.81759   2.82480   2.83195
 Alpha virt. eigenvalues --    2.83613   2.85489   2.87646   2.89655   2.90085
 Alpha virt. eigenvalues --    2.91932   2.92737   2.93508   2.96105   2.96987
 Alpha virt. eigenvalues --    2.97065   2.98097   2.98635   2.98793   2.99798
 Alpha virt. eigenvalues --    3.01350   3.03457   3.04009   3.05071   3.07088
 Alpha virt. eigenvalues --    3.09174   3.10580   3.10691   3.12351   3.14345
 Alpha virt. eigenvalues --    3.15873   3.17775   3.18485   3.19685   3.20737
 Alpha virt. eigenvalues --    3.21016   3.22831   3.25151   3.25683   3.27652
 Alpha virt. eigenvalues --    3.32487   3.43295   3.47521   3.53582   3.60285
 Alpha virt. eigenvalues --    3.64681   3.70558   3.77462   3.79982
          Condensed to atoms (all electrons):
               1          2          3          4          5          6
     1  O    7.781317  -0.000069  -0.000034  -0.000021  -0.000000  -0.000000
     2  C   -0.000069   5.530053   0.195532  -0.000083  -0.118296  -0.030685
     3  C   -0.000034   0.195532   5.156494   0.000001   0.515528  -0.005451
     4  O   -0.000021  -0.000083   0.000001   7.782834   0.000000   0.000000
     5  N   -0.000000  -0.118296   0.515528   0.000000   6.323871   0.350216
     6  H   -0.000000  -0.030685  -0.005451   0.000000   0.350216   0.521537
     7  C   -0.147445  -0.021587  -0.149845   0.000201  -0.000158  -0.000172
     8  N   -0.104925  -0.001440  -0.000044  -0.105918  -0.000000   0.000000
     9  C    0.000575   0.296137   0.006355   0.000605   0.003885   0.000893
    10  C    0.002433  -0.002611   0.255814  -0.000000  -0.088222   0.008350
    11  H   -0.000026   0.013379  -0.064642   0.000000  -0.014890  -0.000094
    12  C    0.000204  -0.001403   0.026684  -0.138624  -0.000041  -0.000004
    13  C    0.000007  -0.121733  -0.002967   0.017508  -0.000049   0.000032
    14  H    0.000000  -0.001131   0.000034   0.014843  -0.000000   0.000000
    15  C   -0.000000   0.061033   0.016857   0.001921   0.000999  -0.000903
    16  H    0.000000   0.012969  -0.000359  -0.000015   0.000007   0.000027
    17  C   -0.000582   0.015073   0.000274   0.748174   0.000001   0.000000
    18  C    0.000001   0.292827  -0.122535  -0.000040  -0.000825   0.002374
    19  H   -0.000000  -0.051847  -0.020897  -0.000000  -0.003840   0.006354
    20  C    0.755542   0.011099  -0.000974  -0.000646   0.000013  -0.000001
    21  C    0.008843   0.000082   0.000000  -0.001236   0.000000   0.000000
    22  H    0.012930   0.000001   0.000000   0.000511   0.000000   0.000000
    23  H    0.000540   0.000002  -0.000000   0.021604  -0.000000   0.000000
    24  C    0.018801  -0.098813   0.106217   0.000008   0.006659   0.000088
    25  H    0.017001  -0.001142   0.013135   0.000000  -0.000078   0.000004
    26  C   -0.011630  -0.000005  -0.000000  -0.005175   0.000000  -0.000000
    27  H    0.000069   0.000000   0.000000  -0.000079  -0.000000   0.000000
    28  H    0.013574   0.000001   0.000000  -0.000047  -0.000000   0.000000
    29  C    0.000071   0.000002  -0.000000   0.001571  -0.000000  -0.000000
    30  H   -0.000013   0.000000  -0.000000   0.004978   0.000000   0.000000
    31  H    0.000013  -0.000008  -0.000000  -0.002405  -0.000000   0.000000
    32  C   -0.000005   0.000000  -0.000000   0.000119   0.000000   0.000000
    33  H   -0.000022  -0.000000  -0.000000  -0.000003   0.000000   0.000000
    34  H    0.000001   0.000000  -0.000000  -0.000003  -0.000000  -0.000000
    35  H    0.000000  -0.000000   0.000000  -0.000003  -0.000000  -0.000000
    36  C    0.000000   0.008491  -0.043530   0.000000   0.323767  -0.055175
    37  H    0.000000  -0.000386  -0.006395  -0.000000  -0.035106   0.001331
    38  H    0.000000  -0.000492  -0.014960   0.000000  -0.016170   0.005669
    39  C    0.000000   0.000181   0.010102   0.000000  -0.043551  -0.023631
    40  H   -0.000000   0.000035  -0.000356   0.000000   0.004058   0.003684
    41  H   -0.000000  -0.000095   0.000295   0.000000  -0.000955  -0.002063
    42  N   -0.000000   0.000847  -0.001499  -0.000000  -0.022226   0.066272
    43  C    0.000000  -0.000003   0.000042   0.000000  -0.000034  -0.002750
    44  H    0.000000  -0.000005   0.000003   0.000000   0.000057  -0.000761
    45  H    0.000000   0.000002  -0.000005  -0.000000  -0.000078   0.000975
    46  H   -0.000000  -0.000015   0.000017   0.000000   0.000239  -0.001426
    47  C   -0.000000  -0.000057  -0.000143  -0.000000  -0.001142  -0.002032
    48  H    0.000000   0.000008  -0.000026  -0.000000   0.000013   0.001488
    49  H   -0.000000  -0.000016   0.000028   0.000000   0.000146  -0.001213
    50  H   -0.000000  -0.000175   0.000242   0.000000   0.002000  -0.002982
               7          8          9         10         11         12
     1  O   -0.147445  -0.104925   0.000575   0.002433  -0.000026   0.000204
     2  C   -0.021587  -0.001440   0.296137  -0.002611   0.013379  -0.001403
     3  C   -0.149845  -0.000044   0.006355   0.255814  -0.064642   0.026684
     4  O    0.000201  -0.105918   0.000605  -0.000000   0.000000  -0.138624
     5  N   -0.000158  -0.000000   0.003885  -0.088222  -0.014890  -0.000041
     6  H   -0.000172   0.000000   0.000893   0.008350  -0.000094  -0.000004
     7  C    5.872250  -0.118206   0.313950   0.050503   0.014416  -0.077028
     8  N   -0.118206   7.031461  -0.017371   0.000066   0.000000  -0.113712
     9  C    0.313950  -0.017371   5.169876  -0.099978  -0.001464   0.323333
    10  C    0.050503   0.000066  -0.099978   5.294374   0.466874  -0.002839
    11  H    0.014416   0.000000  -0.001464   0.466874   0.616353   0.000012
    12  C   -0.077028  -0.113712   0.323333  -0.002839   0.000012   5.784748
    13  C    0.014171   0.009877   0.019412   0.000105   0.000000   0.288090
    14  H   -0.000349   0.000989   0.011624   0.000000   0.000000  -0.075710
    15  C   -0.003171   0.000048  -0.118039  -0.000229   0.000001   0.059679
    16  H    0.000034   0.000000  -0.000688   0.000003  -0.000000   0.012715
    17  C   -0.044511   0.317062  -0.066146  -0.000280   0.000001   0.203162
    18  C    0.024121  -0.000020   0.011065   0.014179  -0.000065  -0.139364
    19  H   -0.000074  -0.000000   0.012270  -0.000247   0.000008  -0.001309
    20  C    0.232943   0.302488  -0.063148   0.019577  -0.000410  -0.034507
    21  C    0.011305   0.226707  -0.000426  -0.000002  -0.000000   0.008123
    22  H    0.003274  -0.023227  -0.000174  -0.000003   0.000000  -0.000409
    23  H   -0.000289  -0.026395  -0.000253   0.000000   0.000000   0.005096
    24  C    0.260728   0.009776   0.019762   0.252744  -0.069652   0.012897
    25  H   -0.078387   0.001114   0.011183  -0.059915  -0.010850  -0.000365
    26  C   -0.002224  -0.032583   0.000218   0.000001  -0.000000  -0.001266
    27  H    0.000011   0.005077   0.000001   0.000000  -0.000000   0.000018
    28  H    0.000347  -0.010927  -0.000080  -0.000001   0.000000   0.000107
    29  C    0.000122  -0.007000   0.000005  -0.000000   0.000000  -0.000223
    30  H    0.000003  -0.002011  -0.000024   0.000000  -0.000000   0.000265
    31  H   -0.000226   0.006193   0.000275   0.000000  -0.000000   0.000079
    32  C   -0.000004  -0.000221  -0.000001   0.000000  -0.000000   0.000017
    33  H   -0.000000   0.000039   0.000000   0.000000   0.000000  -0.000001
    34  H   -0.000000  -0.000001   0.000000  -0.000000   0.000000  -0.000000
    35  H    0.000000   0.000009  -0.000000   0.000000   0.000000  -0.000001
    36  C    0.000040   0.000000  -0.000116  -0.001555   0.006743   0.000004
    37  H   -0.000032   0.000000  -0.000005   0.004296  -0.000729  -0.000000
    38  H   -0.000062   0.000000   0.000020   0.007348  -0.000259   0.000001
    39  C    0.000004   0.000000   0.000000   0.000290   0.000567  -0.000000
    40  H   -0.000000   0.000000   0.000000  -0.000026   0.000004   0.000000
    41  H    0.000000  -0.000000  -0.000002  -0.000083  -0.000010   0.000000
    42  N   -0.000000   0.000000   0.000007  -0.000120  -0.000008  -0.000000
    43  C    0.000000   0.000000  -0.000000   0.000001   0.000000  -0.000000
    44  H    0.000000  -0.000000  -0.000000   0.000000   0.000000   0.000000
    45  H   -0.000000   0.000000   0.000000  -0.000000   0.000000  -0.000000
    46  H    0.000000  -0.000000  -0.000000   0.000001   0.000000   0.000000
    47  C   -0.000000  -0.000000  -0.000001  -0.000007  -0.000008   0.000000
    48  H   -0.000000   0.000000   0.000000  -0.000004  -0.000001  -0.000000
    49  H    0.000000  -0.000000  -0.000000   0.000002   0.000000   0.000000
    50  H    0.000001  -0.000000  -0.000006   0.000002   0.000001   0.000000
              13         14         15         16         17         18
     1  O    0.000007   0.000000  -0.000000   0.000000  -0.000582   0.000001
     2  C   -0.121733  -0.001131   0.061033   0.012969   0.015073   0.292827
     3  C   -0.002967   0.000034   0.016857  -0.000359   0.000274  -0.122535
     4  O    0.017508   0.014843   0.001921  -0.000015   0.748174  -0.000040
     5  N   -0.000049  -0.000000   0.000999   0.000007   0.000001  -0.000825
     6  H    0.000032   0.000000  -0.000903   0.000027   0.000000   0.002374
     7  C    0.014171  -0.000349  -0.003171   0.000034  -0.044511   0.024121
     8  N    0.009877   0.000989   0.000048   0.000000   0.317062  -0.000020
     9  C    0.019412   0.011624  -0.118039  -0.000688  -0.066146   0.011065
    10  C    0.000105   0.000000  -0.000229   0.000003  -0.000280   0.014179
    11  H    0.000000   0.000000   0.000001  -0.000000   0.000001  -0.000065
    12  C    0.288090  -0.075710   0.059679   0.012715   0.203162  -0.139364
    13  C    5.129720   0.460134   0.254433  -0.068261  -0.074167   0.079867
    14  H    0.460134   0.621184  -0.060926  -0.010146  -0.012479   0.012163
    15  C    0.254433  -0.060926   5.102503   0.453107   0.021699   0.313269
    16  H   -0.068261  -0.010146   0.453107   0.616197  -0.000385  -0.058722
    17  C   -0.074167  -0.012479   0.021699  -0.000385   4.692087  -0.003054
    18  C    0.079867   0.012163   0.313269  -0.058722  -0.003054   5.210259
    19  H    0.011811  -0.000178  -0.052473  -0.010375   0.000023   0.447934
    20  C    0.000740   0.000041  -0.000266   0.000001  -0.033001   0.000143
    21  C   -0.000294  -0.000027   0.000001  -0.000000  -0.020691  -0.000000
    22  H    0.000007  -0.000001   0.000000   0.000000   0.004248  -0.000000
[...]
    49  H    0.000000  -0.000000   0.000000   0.000000   0.000000   0.000000
    50  H    0.000000  -0.000000  -0.000000  -0.000000   0.000000   0.000000
              31         32         33         34         35         36
     1  O    0.000013  -0.000005  -0.000022   0.000001   0.000000   0.000000
     2  C   -0.000008   0.000000  -0.000000   0.000000  -0.000000   0.008491
     3  C   -0.000000  -0.000000  -0.000000  -0.000000   0.000000  -0.043530
     4  O   -0.002405   0.000119  -0.000003  -0.000003  -0.000003   0.000000
     5  N   -0.000000   0.000000   0.000000  -0.000000  -0.000000   0.323767
     6  H    0.000000   0.000000   0.000000  -0.000000  -0.000000  -0.055175
     7  C   -0.000226  -0.000004  -0.000000  -0.000000   0.000000   0.000040
     8  N    0.006193  -0.000221   0.000039  -0.000001   0.000009   0.000000
     9  C    0.000275  -0.000001   0.000000   0.000000  -0.000000  -0.000116
    10  C    0.000000   0.000000   0.000000  -0.000000   0.000000  -0.001555
    11  H   -0.000000  -0.000000   0.000000   0.000000   0.000000   0.006743
    12  C    0.000079   0.000017  -0.000001  -0.000000  -0.000001   0.000004
    13  C    0.000034   0.000000   0.000000  -0.000000  -0.000000   0.000001
    14  H    0.000028  -0.000000   0.000000  -0.000000  -0.000000   0.000000
    15  C   -0.000002  -0.000000   0.000000  -0.000000   0.000000   0.000007
    16  H   -0.000000   0.000000  -0.000000  -0.000000  -0.000000  -0.000000
    17  C    0.004715  -0.000033  -0.000010   0.000009   0.000007  -0.000000
    18  C    0.000000   0.000000  -0.000000  -0.000000  -0.000000   0.000526
    19  H   -0.000000  -0.000000  -0.000000   0.000000   0.000000  -0.000171
    20  C    0.000488  -0.000068  -0.000012   0.000001   0.000001   0.000000
    21  C   -0.015896   0.008731   0.000368   0.000095  -0.000410  -0.000000
    22  H    0.000054  -0.000319   0.000001  -0.000010   0.000011   0.000000
    23  H   -0.000711   0.000244   0.000011  -0.000033  -0.000000  -0.000000
    24  C   -0.000011   0.000000  -0.000000  -0.000000   0.000000   0.000238
    25  H    0.000000   0.000000   0.000000  -0.000000   0.000000  -0.000021
    26  C   -0.013544  -0.053519  -0.006707  -0.006448   0.006972   0.000000
    27  H    0.007987  -0.004494  -0.001420   0.006303  -0.000033  -0.000000
    28  H   -0.009093  -0.004365   0.006183  -0.001390  -0.000091  -0.000000
    29  C    0.375924   0.416443  -0.021119  -0.024240  -0.016101  -0.000000
    30  H   -0.031605  -0.023741   0.007426  -0.008455  -0.005720   0.000000
    31  H    0.669876  -0.022700  -0.008483   0.007451  -0.005802  -0.000000
    32  C   -0.022700   4.568066   0.393975   0.397810   0.389351   0.000000
    33  H   -0.008483   0.393975   0.636703  -0.024143  -0.022053   0.000000
    34  H    0.007451   0.397810  -0.024143   0.637044  -0.022608  -0.000000
    35  H   -0.005802   0.389351  -0.022053  -0.022608   0.633562  -0.000000
    36  C   -0.000000   0.000000   0.000000  -0.000000  -0.000000   4.609339
    37  H   -0.000000  -0.000000  -0.000000   0.000000   0.000000   0.385792
    38  H    0.000000   0.000000   0.000000  -0.000000  -0.000000   0.392961
    39  C   -0.000000  -0.000000  -0.000000  -0.000000   0.000000   0.392709
    40  H    0.000000  -0.000000  -0.000000   0.000000   0.000000  -0.032767
    41  H   -0.000000  -0.000000  -0.000000   0.000000   0.000000  -0.017375
    42  N    0.000000   0.000000   0.000000  -0.000000  -0.000000  -0.075078
    43  C   -0.000000   0.000000   0.000000  -0.000000  -0.000000   0.009416
    44  H   -0.000000  -0.000000   0.000000  -0.000000  -0.000000  -0.000334
    45  H    0.000000   0.000000  -0.000000   0.000000   0.000000  -0.000651
    46  H   -0.000000  -0.000000  -0.000000   0.000000   0.000000   0.000757
    47  C   -0.000000  -0.000000  -0.000000   0.000000   0.000000   0.001027
    48  H    0.000000   0.000000   0.000000  -0.000000  -0.000000  -0.005722
    49  H   -0.000000  -0.000000  -0.000000   0.000000   0.000000  -0.000043
    50  H   -0.000000   0.000000   0.000000  -0.000000  -0.000000   0.012221
              37         38         39         40         41         42
     1  O    0.000000   0.000000   0.000000  -0.000000  -0.000000  -0.000000
     2  C   -0.000386  -0.000492   0.000181   0.000035  -0.000095   0.000847
     3  C   -0.006395  -0.014960   0.010102  -0.000356   0.000295  -0.001499
     4  O   -0.000000   0.000000   0.000000   0.000000   0.000000  -0.000000
     5  N   -0.035106  -0.016170  -0.043551   0.004058  -0.000955  -0.022226
     6  H    0.001331   0.005669  -0.023631   0.003684  -0.002063   0.066272
     7  C   -0.000032  -0.000062   0.000004  -0.000000   0.000000  -0.000000
     8  N    0.000000   0.000000   0.000000   0.000000  -0.000000   0.000000
     9  C   -0.000005   0.000020   0.000000   0.000000  -0.000002   0.000007
    10  C    0.004296   0.007348   0.000290  -0.000026  -0.000083  -0.000120
    11  H   -0.000729  -0.000259   0.000567   0.000004  -0.000010  -0.000008
    12  C   -0.000000   0.000001  -0.000000   0.000000   0.000000  -0.000000
    13  C   -0.000000  -0.000000   0.000000   0.000000  -0.000000   0.000000
    14  H    0.000000   0.000000  -0.000000   0.000000  -0.000000   0.000000
    15  C    0.000002   0.000000   0.000002  -0.000000   0.000002  -0.000033
    16  H   -0.000000   0.000000  -0.000000  -0.000000   0.000000  -0.000001
    17  C    0.000000   0.000000   0.000000  -0.000000   0.000000  -0.000000
    18  C    0.000040  -0.000042   0.000005  -0.000017   0.000046  -0.001683
    19  H    0.000029  -0.000047   0.000270   0.000013  -0.000023   0.002411
    20  C    0.000000   0.000000   0.000000  -0.000000   0.000000  -0.000000
    21  C   -0.000000   0.000000  -0.000000  -0.000000   0.000000  -0.000000
    22  H   -0.000000   0.000000  -0.000000  -0.000000  -0.000000   0.000000
    23  H    0.000000  -0.000000   0.000000   0.000000   0.000000  -0.000000
    24  C    0.000151   0.001030  -0.000047   0.000001  -0.000002   0.000001
    25  H    0.000006   0.000015  -0.000000  -0.000000   0.000000  -0.000000
    26  C   -0.000000   0.000000   0.000000   0.000000  -0.000000   0.000000
    27  H    0.000000  -0.000000   0.000000   0.000000   0.000000  -0.000000
    28  H    0.000000  -0.000000   0.000000   0.000000   0.000000  -0.000000
    29  C   -0.000000   0.000000  -0.000000  -0.000000   0.000000  -0.000000
    30  H   -0.000000   0.000000  -0.000000  -0.000000  -0.000000   0.000000
    31  H   -0.000000   0.000000  -0.000000   0.000000  -0.000000   0.000000
    32  C   -0.000000   0.000000  -0.000000  -0.000000  -0.000000   0.000000
    33  H   -0.000000   0.000000  -0.000000  -0.000000  -0.000000   0.000000
    34  H    0.000000  -0.000000  -0.000000   0.000000   0.000000  -0.000000
    35  H    0.000000  -0.000000   0.000000   0.000000   0.000000  -0.000000
    36  C    0.385792   0.392961   0.392709  -0.032767  -0.017375  -0.075078
    37  H    0.631630  -0.031867  -0.009172  -0.006407   0.006993  -0.005975
    38  H   -0.031867   0.601054  -0.016050  -0.000071  -0.011577   0.004685
    39  C   -0.009172  -0.016050   4.615099   0.381229   0.394451   0.330958
    40  H   -0.006407  -0.000071   0.381229   0.665390  -0.026448  -0.030251
    41  H    0.006993  -0.011577   0.394451  -0.026448   0.631800  -0.031951
    42  N   -0.005975   0.004685   0.330958  -0.030251  -0.031951   6.727127
    43  C   -0.000193  -0.000168  -0.049201  -0.003002  -0.006100   0.349377
    44  H    0.000016   0.000009   0.007344  -0.000549   0.000551  -0.027147
    45  H   -0.000022   0.000021  -0.008644   0.010217  -0.002986  -0.036679
    46  H    0.000001  -0.000053  -0.004014  -0.001780   0.005873  -0.026435
    47  C    0.001522   0.000063  -0.053053  -0.007188   0.007680   0.328874
    48  H    0.000290   0.000067  -0.003405   0.012171  -0.000409  -0.038157
    49  H   -0.000204   0.000001   0.007729  -0.000142  -0.000363  -0.025173
    50  H   -0.001271   0.000122  -0.009801  -0.003232   0.000166  -0.027093
              43         44         45         46         47         48
     1  O    0.000000   0.000000   0.000000  -0.000000  -0.000000   0.000000
     2  C   -0.000003  -0.000005   0.000002  -0.000015  -0.000057   0.000008
     3  C    0.000042   0.000003  -0.000005   0.000017  -0.000143  -0.000026
     4  O    0.000000   0.000000  -0.000000   0.000000  -0.000000  -0.000000
     5  N   -0.000034   0.000057  -0.000078   0.000239  -0.001142   0.000013
     6  H   -0.002750  -0.000761   0.000975  -0.001426  -0.002032   0.001488
     7  C    0.000000   0.000000  -0.000000   0.000000  -0.000000  -0.000000
     8  N    0.000000  -0.000000   0.000000  -0.000000  -0.000000   0.000000
     9  C   -0.000000  -0.000000   0.000000  -0.000000  -0.000001   0.000000
    10  C    0.000001   0.000000  -0.000000   0.000001  -0.000007  -0.000004
    11  H    0.000000   0.000000   0.000000   0.000000  -0.000008  -0.000001
    12  C   -0.000000   0.000000  -0.000000   0.000000   0.000000  -0.000000
    13  C    0.000000  -0.000000   0.000000  -0.000000  -0.000000   0.000000
    14  H   -0.000000  -0.000000   0.000000  -0.000000  -0.000000   0.000000
    15  C    0.000001   0.000002  -0.000000   0.000002   0.000002  -0.000000
    16  H   -0.000000   0.000000  -0.000000  -0.000000  -0.000000  -0.000000
    17  C    0.000000   0.000000  -0.000000   0.000000   0.000000  -0.000000
    18  C   -0.000001   0.000018  -0.000005   0.000031   0.000064  -0.000010
    19  H    0.000140  -0.000014   0.000011  -0.000008  -0.000084   0.000014
    20  C   -0.000000   0.000000  -0.000000   0.000000   0.000000  -0.000000
    21  C   -0.000000   0.000000  -0.000000   0.000000   0.000000  -0.000000
    22  H    0.000000   0.000000  -0.000000  -0.000000   0.000000   0.000000
    23  H   -0.000000  -0.000000   0.000000   0.000000  -0.000000  -0.000000
    24  C   -0.000000  -0.000000   0.000000  -0.000000   0.000000   0.000000
    25  H   -0.000000   0.000000  -0.000000   0.000000   0.000000  -0.000000
    26  C    0.000000  -0.000000   0.000000  -0.000000  -0.000000   0.000000
    27  H   -0.000000  -0.000000   0.000000  -0.000000  -0.000000  -0.000000
    28  H   -0.000000  -0.000000   0.000000   0.000000   0.000000  -0.000000
    29  C   -0.000000   0.000000  -0.000000   0.000000   0.000000  -0.000000
    30  H    0.000000   0.000000  -0.000000  -0.000000   0.000000   0.000000
    31  H   -0.000000  -0.000000   0.000000  -0.000000  -0.000000   0.000000
    32  C    0.000000  -0.000000   0.000000  -0.000000  -0.000000   0.000000
    33  H    0.000000   0.000000  -0.000000  -0.000000  -0.000000   0.000000
    34  H   -0.000000  -0.000000   0.000000   0.000000   0.000000  -0.000000
    35  H   -0.000000  -0.000000   0.000000   0.000000   0.000000  -0.000000
    36  C    0.009416  -0.000334  -0.000651   0.000757   0.001027  -0.005722
    37  H   -0.000193   0.000016  -0.000022   0.000001   0.001522   0.000290
    38  H   -0.000168   0.000009   0.000021  -0.000053   0.000063   0.000067
    39  C   -0.049201   0.007344  -0.008644  -0.004014  -0.053053  -0.003405
    40  H   -0.003002  -0.000549   0.010217  -0.001780  -0.007188   0.012171
    41  H   -0.006100   0.000551  -0.002986   0.005873   0.007680  -0.000409
    42  N    0.349377  -0.027147  -0.036679  -0.026435   0.328874  -0.038157
    43  C    4.493987   0.402198   0.390599   0.402580  -0.045662  -0.003590
    44  H    0.402198   0.621801  -0.032759  -0.017562  -0.003289  -0.002733
    45  H    0.390599  -0.032759   0.689765  -0.031569  -0.006368   0.012991
    46  H    0.402580  -0.017562  -0.031569   0.616298   0.006876  -0.000442
    47  C   -0.045662  -0.003289  -0.006368   0.006876   4.521260   0.388835
    48  H   -0.003590  -0.002733   0.012991  -0.000442   0.388835   0.680209
    49  H   -0.005052   0.004675  -0.002581   0.000407   0.400549  -0.029830
    50  H    0.006218   0.000517  -0.000680  -0.000335   0.406377  -0.032831
              49         50
     1  O   -0.000000  -0.000000
     2  C   -0.000016  -0.000175
     3  C    0.000028   0.000242
     4  O    0.000000   0.000000
     5  N    0.000146   0.002000
     6  H   -0.001213  -0.002982
     7  C    0.000000   0.000001
     8  N   -0.000000  -0.000000
     9  C   -0.000000  -0.000006
    10  C    0.000002   0.000002
    11  H    0.000000   0.000001
    12  C    0.000000   0.000000
    13  C   -0.000000  -0.000000
    14  H   -0.000000  -0.000000
    15  C    0.000002   0.000005
    16  H    0.000000   0.000000
    17  C    0.000000   0.000000
    18  C    0.000034   0.000112
    19  H   -0.000002  -0.000117
    20  C    0.000000   0.000000
    21  C    0.000000   0.000000
    22  H    0.000000   0.000000
    23  H    0.000000  -0.000000
    24  C   -0.000000  -0.000002
    25  H    0.000000   0.000000
    26  C   -0.000000  -0.000000
    27  H    0.000000  -0.000000
    28  H    0.000000  -0.000000
    29  C    0.000000   0.000000
    30  H    0.000000   0.000000
    31  H   -0.000000  -0.000000
    32  C   -0.000000   0.000000
    33  H   -0.000000   0.000000
    34  H    0.000000  -0.000000
    35  H    0.000000  -0.000000
    36  C   -0.000043   0.012221
    37  H   -0.000204  -0.001271
    38  H    0.000001   0.000122
    39  C    0.007729  -0.009801
    40  H   -0.000142  -0.003232
    41  H   -0.000363   0.000166
    42  N   -0.025173  -0.027093
    43  C   -0.005052   0.006218
    44  H    0.004675   0.000517
    45  H   -0.002581  -0.000680
    46  H    0.000407  -0.000335
    47  C    0.400549   0.406377
    48  H   -0.029830  -0.032831
    49  H    0.617053  -0.015780
    50  H   -0.015780   0.609874
 Mulliken charges:
               1
     1  O   -0.347151
     2  C    0.014338
     3  C    0.131009
     4  O   -0.340582
     5  N   -0.185798
     6  H    0.160048
     7  C   -0.154652
     8  N   -0.346908
     9  C    0.166473
    10  C   -0.120841
    11  H    0.044747
    12  C   -0.138430
    13  C   -0.018135
    14  H    0.039921
    15  C   -0.049676
    16  H    0.053894
    17  C    0.257043
    18  C   -0.079570
    19  H    0.057322
    20  C    0.248056
    21  C    0.151257
    22  H    0.049937
    23  H    0.042250
    24  C    0.006692
    25  H    0.041203
    26  C   -0.076495
    27  H    0.044118
    28  H    0.032206
    29  C   -0.102707
    30  H    0.026690
    31  H    0.037367
    32  C   -0.065288
    33  H    0.039267
    34  H    0.038619
    35  H    0.042908
    36  C    0.088499
    37  H    0.065665
    38  H    0.078747
    39  C    0.079630
    40  H    0.035433
    41  H    0.052587
    42  N   -0.461052
    43  C    0.061196
    44  H    0.047961
    45  H    0.018447
    46  H    0.050558
    47  C    0.055905
    48  H    0.021072
    49  H    0.049771
    50  H    0.056448
 Sum of Mulliken charges =  -0.00000
 Mulliken charges with hydrogens summed into heavy atoms:
               1
     1  O   -0.347151
     2  C    0.014338
     3  C    0.131009
     4  O   -0.340582
     5  N   -0.025751
     7  C   -0.154652
     8  N   -0.346908
     9  C    0.166473
    10  C   -0.076093
    12  C   -0.138430
    13  C    0.021786
    15  C    0.004218
    17  C    0.257043
    18  C   -0.022248
    20  C    0.248056
    21  C    0.243445
    24  C    0.047895
    26  C   -0.000171
    29  C   -0.038650
    32  C    0.055506
    36  C    0.232911
    39  C    0.167650
    42  N   -0.461052
    43  C    0.178161
    47  C    0.183196
 Electronic spatial extent (au):  <R**2>=          12206.9284
 Charge=             -0.0000 electrons
 Dipole moment (field-independent basis, Debye):
    X=             14.3202    Y=             -0.2663    Z=              1.8952  Tot=             14.4475
 Quadrupole moment (field-independent basis, Debye-Ang):
   XX=           -119.8709   YY=           -152.1870   ZZ=           -150.4943
   XY=             -1.7671   XZ=             -2.7608   YZ=              0.1873
 Traceless Quadrupole moment (field-independent basis, Debye-Ang):
   XX=             20.9798   YY=            -11.3363   ZZ=             -9.6436
   XY=             -1.7671   XZ=             -2.7608   YZ=              0.1873
 Octapole moment (field-independent basis, Debye-Ang**2):
  XXX=            259.0105  YYY=             15.6239  ZZZ=              6.0955  XYY=             95.1539
  XXY=            -30.9059  XXZ=             22.0673  XZZ=             14.9333  YZZ=             -3.3391
  YYZ=             10.9234  XYZ=             -0.6430
 Hexadecapole moment (field-independent basis, Debye-Ang**3):
 XXXX=         -11872.9188 YYYY=          -1985.9960 ZZZZ=          -1100.4495 XXXY=             87.3848
 XXXZ=             64.9534 YYYX=            -41.9102 YYYZ=             -5.9620 ZZZX=             58.0016
 ZZZY=             11.8298 XXYY=          -2642.8510 XXZZ=          -2339.0397 YYZZ=           -548.6233
 XXYZ=             34.2117 YYXZ=            -39.1124 ZZXY=              5.9298
 N-N= 2.160285164099D+03 E-N=-6.852308574936D+03  KE= 1.078831530326D+03
 1\1\GINC-NODE-2-16\SP\RwB97XD\def2SVP\C20H25N3O2\ROOT\02-Jun-2022\0\\#
  wB97XD/def2SVP geom=check guess=read SCRF=(SMD, solvent=Ethanol, NonE
 q=Read)\\02_wB97XD_EtOH\\0,1\O,0,-2.842718562,-2.4145973339,-0.7749038
 083\C,0,1.0078088992,0.4572275924,-0.3608958852\C,0,1.8617797743,-0.71
 5739923,-0.2945357034\O,0,-3.5136753169,2.0974259262,-0.7813953922\N,0
 ,3.1789797759,-0.5573303154,-0.1549059916\H,0,3.5684208187,0.373756390
 6,0.0156561038\C,0,-0.9189340211,-1.0630208785,-0.5767753508\N,0,-3.17
 37157223,-0.1639342327,-0.7671640458\C,0,-0.398771321,0.2472163052,-0.
 5008572003\C,0,1.2895662693,-2.0279140563,-0.3786860083\H,0,1.94609286
 32,-2.8966420959,-0.3225927987\C,0,-1.280964566,1.3581944434,-0.567739
 1064\C,0,-0.7502197128,2.6775844085,-0.494824041\H,0,-1.4337504897,3.5
 260630456,-0.5444999105\C,0,0.607188032,2.8659460171,-0.3629380355\H,0
 ,1.0124645068,3.8791282051,-0.3075238055\C,0,-2.7077702877,1.163107251
 2,-0.7098999514\C,0,1.5015082012,1.7681531211,-0.2974534338\H,0,2.5682
 12743,1.9752606918,-0.2009619316\C,0,-2.3669716767,-1.2805270635,-0.71
 31594088\C,0,-4.617997605,-0.3896511736,-0.8696683092\H,0,-4.776605960
 6,-1.2013211531,-1.5915748593\H,0,-5.0525459269,0.5289148311,-1.279004
 2516\C,0,-0.0612679275,-2.202351105,-0.5168848237\H,0,-0.4974963489,-3
 .1989560609,-0.577172514\C,0,-5.2723281896,-0.7449052916,0.4636120491\
 H,0,-6.346112132,-0.9047230369,0.2655643799\H,0,-4.876256388,-1.712466
 5056,0.8146452373\C,0,-5.1052353523,0.3041281853,1.5599000085\H,0,-5.4
 887355846,1.2743914793,1.2019181487\H,0,-4.0303859483,0.4565499142,1.7
 599050438\C,0,-5.8058319728,-0.0835738823,2.856286569\H,0,-5.416435437
 5,-1.0368060999,3.2500326055\H,0,-6.8905169163,-0.2072675964,2.7033635
 169\H,0,-5.6639141175,0.6819357322,3.6349406049\C,0,4.1848260621,-1.58
 60715616,-0.034669053\H,0,4.0736079704,-2.1135198663,0.9300526889\H,0,
 4.0725417019,-2.3404928252,-0.8284274857\C,0,5.5550317047,-0.922677570
 3,-0.1566195474\H,0,6.3339009766,-1.6649005807,0.114563472\H,0,5.71784
 22538,-0.650932852,-1.2108699325\N,0,5.638164418,0.2938903357,0.633669
 1436\C,0,6.7365467019,1.1431130596,0.215151793\H,0,6.7176183039,2.0868
 888975,0.7807971451\H,0,7.7294630917,0.6713612526,0.3757552795\H,0,6.6
 445858668,1.3858628685,-0.8541847685\C,0,5.6697030948,0.0401959519,2.0
 622680586\H,0,6.5640210741,-0.5418433044,2.3713959708\H,0,5.6786571985
 ,0.9941088513,2.6102359799\H,0,4.7759151813,-0.5149703925,2.3837375556
 \\Version=ES64L-G16RevA.03\State=1-A\HF=-1090.8555405\RMSD=9.887e-09\D
 ipole=5.6311823,-0.1161537,0.7649414\Quadrupole=15.6137759,-8.4330672,
 -7.1807087,-1.2748751,-1.9886908,0.1128487\PG=C01 [X(C20H25N3O2)]\\@


 IF YOU GET CONFUSED, LOGIC OUT YOUR DILEMMA

           --  PICKER X-RAY CORP.    DIGITAL PRINTER MANUAL CA. 1964
 Job cpu time:       0 days  0 hours 45 minutes 52.3 seconds.
 Elapsed time:       0 days  0 hours  1 minutes 59.7 seconds.
 File lengths (MBytes):  RWF=    896 Int=      0 D2E=      0 Chk=     68 Scr=      2
 Normal termination of Gaussian 16 at Thu Jun  2 18:26:21 2022.
