 Entering Gaussian System, Link 0=g16
 Initial command:
 /home/users/sutd/1008721/g16/l1.exe "/home/users/sutd/1008721/scratch/g16/scratch/Gau-2197716.inp" -scrdir="/home/users/sutd/1008721/scratch/g16/scratch/"
 Entering Link 1 = /home/users/sutd/1008721/g16/l1.exe PID=   2197717.
  
 Copyright (c) 1988-2019, Gaussian, Inc.  All Rights Reserved.
  
 This is part of the Gaussian(R) 16 program.  It is based on
 the Gaussian(R) 09 system (copyright 2009, Gaussian, Inc.),
 the Gaussian(R) 03 system (copyright 2003, Gaussian, Inc.),
 the Gaussian(R) 98 system (copyright 1998, Gaussian, Inc.),
 the Gaussian(R) 94 system (copyright 1995, Gaussian, Inc.),
 the Gaussian 92(TM) system (copyright 1992, Gaussian, Inc.),
 the Gaussian 90(TM) system (copyright 1990, Gaussian, Inc.),
 the Gaussian 88(TM) system (copyright 1988, Gaussian, Inc.),
 the Gaussian 86(TM) system (copyright 1986, Carnegie Mellon
 University), and the Gaussian 82(TM) system (copyright 1983,
 Carnegie Mellon University). Gaussian is a federally registered
 trademark of Gaussian, Inc.
  
 This software contains proprietary and confidential information,
 including trade secrets, belonging to Gaussian, Inc.
  
 This software is provided under written license and may be
 used, copied, transmitted, or stored only in accord with that
 written license.
  
 The following legend is applicable only to US Government
 contracts under FAR:
  
                    RESTRICTED RIGHTS LEGEND
  
 Use, reproduction and disclosure by the US Government is
 subject to restrictions as set forth in subparagraphs (a)
 and (c) of the Commercial Computer Software - Restricted
 Rights clause in FAR 52.227-19.
  
 Gaussian, Inc.
 340 Quinnipiac St., Bldg. 40, Wallingford CT 06492
  
  
 ---------------------------------------------------------------
 Warning -- This program may not be used in any manner that
 competes with the business of Gaussian, Inc. or will provide
 assistance to any competitor of Gaussian, Inc.  The licensee
 of this program is prohibited from giving any competitor of
 Gaussian, Inc. access to this program.  By using this program,
 the user acknowledges that Gaussian, Inc. is engaged in the
 business of creating and licensing software in the field of
 computational chemistry and represents and warrants to the
 licensee that it is not a competitor of Gaussian, Inc. and that
 it will not use this program in any manner prohibited above.
 ---------------------------------------------------------------
  

 Cite this work as:
 Gaussian 16, Revision C.01,
 M. J. Frisch, G. W. Trucks, H. B. Schlegel, G. E. Scuseria, 
 M. A. Robb, J. R. Cheeseman, G. Scalmani, V. Barone, 
 G. A. Petersson, H. Nakatsuji, X. Li, M. Caricato, A. V. Marenich, 
 J. Bloino, B. G. Janesko, R. Gomperts, B. Mennucci, H. P. Hratchian, 
 J. V. Ortiz, A. F. Izmaylov, J. L. Sonnenberg, D. Williams-Young, 
 F. Ding, F. Lipparini, F. Egidi, J. Goings, B. Peng, A. Petrone, 
 T. Henderson, D. Ranasinghe, V. G. Zakrzewski, J. Gao, N. Rega, 
 G. Zheng, W. Liang, M. Hada, M. Ehara, K. Toyota, R. Fukuda, 
 J. Hasegawa, M. Ishida, T. Nakajima, Y. Honda, O. Kitao, H. Nakai, 
 T. Vreven, K. Throssell, J. A. Montgomery, Jr., J. E. Peralta, 
 F. Ogliaro, M. J. Bearpark, J. J. Heyd, E. N. Brothers, K. N. Kudin, 
 V. N. Staroverov, T. A. Keith, R. Kobayashi, J. Normand, 
 K. Raghavachari, A. P. Rendell, J. C. Burant, S. S. Iyengar, 
 J. Tomasi, M. Cossi, J. M. Millam, M. Klene, C. Adamo, R. Cammi, 
 J. W. Ochterski, R. L. Martin, K. Morokuma, O. Farkas, 
 J. B. Foresman, and D. J. Fox, Gaussian, Inc., Wallingford CT, 2019.
 
 ******************************************
 Gaussian 16:  ES64L-G16RevC.01  3-Jul-2019
                10-Oct-2025 
 ******************************************
 %nprocshared=32
 Will use up to   32 processors via shared memory.
 %mem=64GB
 %chk=06BDP-NH2_ethanol_wb97xd_wb97xd_wb97xd.chk
 ----------------------------------------------------------------------
 # td=(nstates=3,root=1) wb97xd scrf=(smd,solvent=ethanol,correctedlr,n
 oneq=save) def2svp
 ----------------------------------------------------------------------
 1/30=1,38=1,172=1/1;
 2/12=2,17=6,18=5,40=1/2;
 3/5=43,7=101,11=9,25=1,30=1,70=9032201,71=1,72=4,74=-58/1,2,3,8;
 4//1;
 5/5=2,38=5,53=4/2;
 8/6=1,10=1,107=1,108=3/1;
 9/8=1,15=1,41=3,42=1,70=2,73=22/14;
 10/5=4,13=10,28=1,74=20/2;
 6/7=2,8=2,9=2,10=2,22=-1/1;
 99/5=1,9=1/99;
 ------------------------------------
 BDP-NH2_ethanol_wb97xd_wb97xd_wb97xd
 ------------------------------------
 Symbolic Z-matrix:
 Charge =  0 Multiplicity = 1
 C                     0.62875  -1.2077   -0.10033 
 C                     0.63768   1.21778   0.04425 
 C                    -0.10441   0.00707  -0.01452 
 C                     0.17577  -2.55592  -0.26803 
 C                     1.30366  -3.35798  -0.32818 
 C                     2.42685  -2.5059   -0.20669 
 H                     1.34443  -4.43845  -0.45583 
 C                     2.44867   2.50159   0.10154 
 C                     0.19745   2.5784    0.13595 
 C                     1.33294   3.37061   0.16383 
 H                     1.3841    4.45621   0.22909 
 N                     2.02259  -1.23161  -0.0713 
 N                     2.03272   1.22593   0.03386 
 B                     2.95467  -0.01081   0.06254 
 F                     3.66491  -0.06141   1.26754 
 F                     3.86375   0.02865  -0.99752 
 C                    -1.57761   0.00708  -0.00245 
 C                    -2.31986   0.82064  -0.87633 
 C                    -2.29759  -0.81177   0.88532 
 C                    -3.708     0.81847  -0.86809 
 H                    -1.79806   1.4576   -1.59511 
 C                    -3.68548  -0.82039   0.90337 
 H                    -1.75665  -1.44311   1.59505 
 C                    -4.4249   -0.00519   0.02299 
 H                    -4.25678   1.45581  -1.56661 
 H                    -4.21616  -1.46046   1.61334 
 H                    -0.83974   2.90195   0.18263 
 H                     3.51043   2.74964   0.11456 
 H                    -0.8645   -2.86293  -0.34929 
 H                     3.48617  -2.76387  -0.21983 
 N                    -5.79658  -0.04576   0.00258 
 H                    -6.2616   -0.42215   0.8207 
 H                    -6.27761   0.73802  -0.4234 
 
                          Input orientation:                          
 ---------------------------------------------------------------------
 Center     Atomic      Atomic             Coordinates (Angstroms)
 Number     Number       Type             X           Y           Z
 ---------------------------------------------------------------------
      1          6           0        0.628747   -1.207699   -0.100327
      2          6           0        0.637675    1.217777    0.044253
      3          6           0       -0.104406    0.007065   -0.014515
      4          6           0        0.175765   -2.555915   -0.268033
      5          6           0        1.303661   -3.357980   -0.328179
      6          6           0        2.426854   -2.505904   -0.206688
      7          1           0        1.344430   -4.438454   -0.455833
      8          6           0        2.448672    2.501594    0.101538
      9          6           0        0.197448    2.578395    0.135950
     10          6           0        1.332941    3.370614    0.163825
     11          1           0        1.384098    4.456209    0.229094
     12          7           0        2.022588   -1.231605   -0.071301
     13          7           0        2.032717    1.225927    0.033863
     14          5           0        2.954668   -0.010807    0.062539
     15          9           0        3.664913   -0.061405    1.267535
     16          9           0        3.863752    0.028650   -0.997517
     17          6           0       -1.577610    0.007080   -0.002447
     18          6           0       -2.319858    0.820640   -0.876329
     19          6           0       -2.297586   -0.811772    0.885319
     20          6           0       -3.708003    0.818467   -0.868094
     21          1           0       -1.798056    1.457602   -1.595108
     22          6           0       -3.685477   -0.820394    0.903372
     23          1           0       -1.756649   -1.443112    1.595051
     24          6           0       -4.424897   -0.005190    0.022990
     25          1           0       -4.256785    1.455808   -1.566610
     26          1           0       -4.216156   -1.460461    1.613343
     27          1           0       -0.839741    2.901950    0.182631
     28          1           0        3.510429    2.749640    0.114555
     29          1           0       -0.864498   -2.862926   -0.349288
     30          1           0        3.486166   -2.763868   -0.219826
     31          7           0       -5.796577   -0.045764    0.002584
     32          1           0       -6.261598   -0.422148    0.820700
     33          1           0       -6.277611    0.738017   -0.423399
 ---------------------------------------------------------------------
                    Distance matrix (angstroms):
                    1          2          3          4          5
     1  C    0.000000
     2  C    2.429798   0.000000
     3  C    1.421453   1.421253   0.000000
     4  C    1.432133   3.814660   2.590682   0.000000
     5  C    2.265201   4.638943   3.661225   1.385307   0.000000
     6  C    2.220324   4.138832   3.572005   2.252480   1.415046
     7  H    3.328117   5.722110   4.696438   2.223736   1.088752
     8  C    4.136633   2.220626   3.571323   5.557075   5.985843
     9  C    3.817899   1.433000   2.593356   5.150224   6.056374
    10  C    4.639678   2.265480   3.662135   6.053867   6.746622
    11  H    5.723541   3.328476   4.697858   7.132818   7.834448
    12  N    1.394348   2.816169   2.462038   2.281065   2.259273
    13  N    2.812770   1.395104   2.460744   4.223948   4.655620
    14  B    2.620875   2.622634   3.060096   3.782744   3.752606
    15  F    3.521838   3.506693   3.981973   4.555733   4.357662
    16  F    3.577536   3.592615   4.088158   4.562167   4.297830
    17  C    2.520571   2.524966   1.473253   3.116697   4.442010
    18  C    3.662050   3.122850   2.512540   4.242556   5.557987
    19  C    3.113146   3.666363   2.508034   3.238784   4.574356
    20  C    4.847908   4.458334   3.791158   5.179786   6.546067
    21  H    3.902252   2.945812   2.733273   4.665342   5.866480
    22  C    4.446341   4.856117   3.788308   4.392427   5.731279
    23  H    2.935956   3.901037   2.724633   2.905794   4.090358
    24  C    5.196206   5.208237   4.320671   5.268490   6.646871
    25  H    5.754362   5.158224   4.663701   6.117820   7.458205
    26  H    5.145254   5.761482   4.659404   4.901894   6.151298
    27  H    4.373298   2.244626   2.993316   5.569797   6.636401
    28  H    4.900081   3.256419   4.539318   6.278158   6.509137
    29  H    2.243109   4.366181   2.987752   1.087660   2.224059
    30  H    3.255885   4.902768   4.540091   3.317276   2.264517
    31  N    6.530350   6.557276   5.692442   6.484054   7.841783
    32  H    6.995873   7.133876   6.228388   6.868620   8.195863
    33  H    7.182476   6.947665   6.229762   7.247081   8.617537
                    6          7          8          9         10
     6  C    0.000000
     7  H    2.229005   0.000000
     8  C    5.017023   7.049417   0.000000
     9  C    5.562171   7.134560   2.252797   0.000000
    10  C    5.988939   7.833623   1.415603   1.384822   0.000000
    11  H    7.053245   8.921083   2.229374   2.223286   1.088758
    12  N    1.343726   3.300249   3.761409   4.229680   4.659540
    13  N    3.760289   5.727020   1.343475   2.282061   2.259703
    14  B    2.564484   4.739793   2.563145   3.783070   3.751568
    15  F    3.111543   5.245302   3.067206   4.502482   4.293603
    16  F    3.018949   5.157075   3.053821   4.607356   4.349993
    17  C    4.732075   5.339162   4.737548   3.127562   4.451103
    18  C    5.834860   6.423542   5.149826   3.232838   4.574629
    19  C    5.136428   5.311854   5.841205   4.275509   5.585126
    20  C    7.008949   7.302894   6.455831   4.399773   5.743642
    21  H    5.957093   6.777658   4.690760   2.869630   4.068981
    22  C    6.436907   6.343324   7.021846   5.217069   6.579969
    23  H    4.677338   4.774399   5.956174   4.703189   5.896264
    24  C    7.297453   7.291655   7.316836   5.296579   6.675971
    25  H    7.887685   8.206690   6.988529   4.898888   6.156779
    26  H    6.966710   6.638528   7.899580   6.162382   7.498858
    27  H    6.329858   7.685035   3.313687   1.087487   2.222734
    28  H    5.375693   7.528983   1.090424   3.317473   2.264838
    29  H    3.313729   2.715327   6.321267   5.565174   6.629408
    30  H    1.090349   2.728914   5.376315   6.283472   6.512713
    31  N    8.586088   8.396419   8.630351   6.544642   7.907444
    32  H    8.993707   8.695511   9.215979   7.154818   8.514314
    33  H    9.291808   9.213708   8.918171   6.754721   8.074398
                   11         12         13         14         15
    11  H    0.000000
    12  N    5.731416   0.000000
    13  N    3.300537   2.459802   0.000000
    14  B    4.738002   1.541763   1.542831   0.000000
    15  F    5.166170   2.420554   2.417278   1.399651   0.000000
    16  F    5.220779   2.415782   2.418658   1.397036   2.275546
    17  C    5.349773   3.807953   3.810691   4.532779   5.394589
    18  C    5.306469   4.869971   4.465156   5.421568   6.418071
    19  C    6.460422   4.444692   4.860938   5.376308   6.021672
    20  C    6.353462   6.138188   5.825411   6.778271   7.726252
    21  H    4.737664   4.914381   4.169178   5.243320   6.351861
    22  C    7.348318   5.805264   6.135244   6.741955   7.398440
    23  H    6.821445   4.135710   4.890846   5.157189   5.604437
    24  C    7.327413   6.563768   6.573929   7.379673   8.185174
    25  H    6.636755   6.992043   6.494012   7.537250   8.549129
    26  H    8.263533   6.466245   6.982825   7.478449   8.011753
    27  H    2.713547   5.034251   3.328994   4.784989   5.500036
    28  H    2.728879   4.254236   2.124110   2.816317   3.042236
    29  H    7.678571   3.327725   5.025871   4.784372   5.565806
    30  H    7.533242   2.124135   4.253861   2.818078   3.089903
    31  N    8.478276   7.908920   7.931962   8.751520   9.545687
    32  H    9.088731   8.371298   8.492993   9.256542   9.943109
    33  H    8.541223   8.537956   8.337188   9.275336  10.116922
                   16         17         18         19         20
    16  F    0.000000
    17  C    5.531641   0.000000
    18  C    6.235300   1.405874   0.000000
    19  C    6.497189   1.406063   2.401805   0.000000
    20  C    7.613937   2.438497   1.388171   2.778743   0.000000
    21  H    5.869846   2.165451   1.092996   3.398839   2.141247
    22  C    7.831035   2.438919   2.779432   1.388035   2.413393
    23  H    6.362107   2.164974   3.398455   1.093125   3.871641
    24  C    8.351304   2.847427   2.433508   2.433031   1.409389
    25  H    8.264609   3.423945   2.152118   3.871994   1.093293
    26  H    8.620844   3.424380   3.872704   2.152145   3.407237
    27  H    5.636617   2.993155   2.764777   4.051026   3.697547
    28  H    2.960630   5.781303   6.220542   6.856440   7.536630
    29  H    5.580122   2.977543   3.995560   2.790202   4.680527
    30  H    2.923274   5.776438   6.854897   6.203532   8.062843
    31  N    9.712245   4.219301   3.689271   3.689028   2.422213
    32  H   10.297177   4.775097   4.467857   3.983638   3.303331
    33  H   10.182340   4.775089   3.984442   4.467123   2.609044
                   21         22         23         24         25
    21  H    0.000000
    22  C    3.872212   0.000000
    23  H    4.311957   2.141629   0.000000
    24  C    3.414425   1.409387   3.414461   0.000000
    25  H    2.458895   3.407095   4.964929   2.165550   0.000000
    26  H    4.965527   1.093327   2.459636   2.165781   4.314902
    27  H    2.482915   4.740625   4.659959   4.618473   4.102117
    28  H    5.724712   8.071458   6.892978   8.400409   8.051704
    29  H    4.592446   3.701218   2.567540   4.580577   5.625029
    30  H    6.901827   7.514727   5.703094   8.381777   8.920358
    31  N    4.560800   2.422440   4.561749   1.372432   2.662339
    32  H    5.412282   2.608033   4.683647   2.045401   3.639401
    33  H    4.685842   3.302745   5.410227   2.045524   2.430204
                   26         27         28         29         30
    26  H    0.000000
    27  H    5.698925   0.000000
    28  H    8.925885   4.353368   0.000000
    29  H    4.129460   5.789417   7.131342   0.000000
    30  H    8.024035   7.139813   5.523692   4.353717   0.000000
    31  N    2.663389   5.769892   9.718394   5.690836   9.675065
    32  H    2.426975   6.391658  10.298126   6.037794  10.078951
    33  H    3.637474   5.883902  10.007085   6.501852  10.374776
                   31         32         33
    31  N    0.000000
    32  H    1.013520   0.000000
    33  H    1.013493   1.701182   0.000000
 Stoichiometry    C15H12BF2N3
 Framework group  C1[X(C15H12BF2N3)]
 Deg. of freedom    93
 Full point group                 C1      NOp   1
 Largest Abelian subgroup         C1      NOp   1
 Largest concise Abelian subgroup C1      NOp   1
                         Standard orientation:                         
 ---------------------------------------------------------------------
 Center     Atomic      Atomic             Coordinates (Angstroms)
 Number     Number       Type             X           Y           Z
 ---------------------------------------------------------------------
      1          6           0        0.628747   -1.207699   -0.100327
      2          6           0        0.637675    1.217777    0.044253
      3          6           0       -0.104406    0.007065   -0.014515
      4          6           0        0.175765   -2.555915   -0.268033
      5          6           0        1.303661   -3.357980   -0.328179
      6          6           0        2.426854   -2.505904   -0.206688
      7          1           0        1.344430   -4.438454   -0.455833
      8          6           0        2.448672    2.501594    0.101538
      9          6           0        0.197448    2.578395    0.135950
     10          6           0        1.332941    3.370614    0.163825
     11          1           0        1.384098    4.456209    0.229094
     12          7           0        2.022588   -1.231605   -0.071301
     13          7           0        2.032717    1.225927    0.033863
     14          5           0        2.954668   -0.010807    0.062539
     15          9           0        3.664913   -0.061405    1.267535
     16          9           0        3.863752    0.028650   -0.997517
     17          6           0       -1.577610    0.007080   -0.002447
     18          6           0       -2.319858    0.820640   -0.876329
     19          6           0       -2.297586   -0.811772    0.885319
     20          6           0       -3.708003    0.818467   -0.868094
     21          1           0       -1.798056    1.457602   -1.595108
     22          6           0       -3.685477   -0.820394    0.903372
     23          1           0       -1.756649   -1.443112    1.595051
     24          6           0       -4.424897   -0.005190    0.022990
     25          1           0       -4.256785    1.455808   -1.566610
     26          1           0       -4.216156   -1.460461    1.613343
     27          1           0       -0.839741    2.901950    0.182631
     28          1           0        3.510429    2.749640    0.114555
     29          1           0       -0.864498   -2.862926   -0.349288
     30          1           0        3.486166   -2.763868   -0.219826
     31          7           0       -5.796577   -0.045764    0.002584
     32          1           0       -6.261598   -0.422148    0.820700
     33          1           0       -6.277611    0.738017   -0.423399
 ---------------------------------------------------------------------
 Rotational constants (GHZ):           0.5786882           0.2116879           0.1653387
 Standard basis: def2SVP (5D, 7F)
 There are   375 symmetry adapted cartesian basis functions of A   symmetry.
 There are   354 symmetry adapted basis functions of A   symmetry.
   354 basis functions,   609 primitive gaussians,   375 cartesian basis functions
    73 alpha electrons       73 beta electrons
       nuclear repulsion energy      1583.8957424208 Hartrees.
 NAtoms=   33 NActive=   33 NUniq=   33 SFac= 1.00D+00 NAtFMM=   60 NAOKFM=F Big=F
 Integral buffers will be    131072 words long.
 Raffenetti 1 integral format.
 Two-electron integral symmetry is turned on.
 Nuclear repulsion after empirical dispersion term =     1583.8706090301 Hartrees.
 ------------------------------------------------------------------------------
 Polarizable Continuum Model (PCM)
 =================================
 Model                : PCM.
 Atomic radii         : SMD-Coulomb.
 Polarization charges : Total charges.
 Charge compensation  : None.
 Solution method      : On-the-fly selection.
 Cavity type          : VdW (van der Waals Surface) (Alpha=1.000).
 Cavity algorithm     : GePol (No added spheres)
                        Default sphere list used, NSphG=   33.
                        Lebedev-Laikov grids with approx.  5.0 points / Ang**2.
                        Smoothing algorithm: York/Karplus (Gamma=1.0000).
                        Polarization charges: spherical gaussians, with
                                              point-specific exponents (IZeta= 3).
                        Self-potential: point-specific (ISelfS= 7).
                        Self-field    : sphere-specific E.n sum rule (ISelfD= 2).
 1st derivatives      : Analytical E(r).r(x)/FMM algorithm (CHGder, D1EAlg=3).
                        Cavity 1st derivative terms included.
 Solvent              : Ethanol, Eps=  24.852000 Eps(inf)=   1.852593
 ------------------------------------------------------------------------------
 ------------------------------------------------------------------------------
 Atomic radii for non-electrostatic terms: SMD-CDS.
 ------------------------------------------------------------------------------
 Nuclear repulsion after PCM non-electrostatic terms =     1583.8698910098 Hartrees.
 One-electron integrals computed using PRISM.
   1 Symmetry operations used in ECPInt.
 ECPInt:  NShTT=   13203 NPrTT=   49137 LenC2=   11952 LenP2D=   30949.
 LDataN:  DoStor=T MaxTD1= 4 Len=   56
 NBasis=   354 RedAO= T EigKep=  2.55D-04  NBF=   354
 NBsUse=   354 1.00D-06 EigRej= -1.00D+00 NBFU=   354
 ExpMin= 8.36D-02 ExpMax= 2.89D+03 ExpMxC= 4.35D+02 IAcc=3 IRadAn=         5 AccDes= 0.00D+00
 Harris functional with IExCor= 4639 and IRadAn=       5 diagonalized for initial guess.
 HarFok:  IExCor= 4639 AccDes= 0.00D+00 IRadAn=         5 IDoV= 1 UseB2=F ITyADJ=14
 ICtDFT=  3500011 ScaDFX=  1.000000  1.000000  1.000000  1.000000
 FoFCou: FMM=F IPFlag=           0 FMFlag=      100000 FMFlg1=           0
         NFxFlg=           0 DoJE=T BraDBF=F KetDBF=T FulRan=T
         wScrn=  0.000000 ICntrl=       500 IOpCl=  0 I1Cent=   200000004 NGrid=           0
         NMat0=    1 NMatS0=      1 NMatT0=    0 NMatD0=    1 NMtDS0=    0 NMtDT0=    0
 Petite list used in FoFCou.
 Requested convergence on RMS density matrix=1.00D-08 within 128 cycles.
 Requested convergence on MAX density matrix=1.00D-06.
 Requested convergence on             energy=1.00D-06.
 No special actions if energy rises.
 Inv3:  Mode=1 IEnd=    19953723.
 Iteration    1 A*A^-1 deviation from unit magnitude is 5.88D-15 for   2575.
 Iteration    1 A*A^-1 deviation from orthogonality  is 2.20D-15 for   2556    582.
 Iteration    1 A^-1*A deviation from unit magnitude is 5.88D-15 for   2575.
 Iteration    1 A^-1*A deviation from orthogonality  is 1.73D-15 for   2574   2558.
 Error on total polarization charges =  0.03821
 SCF Done:  E(RwB97XD) =  -966.820136010     A.U. after   14 cycles
            NFock= 14  Conv=0.95D-08     -V/T= 2.0101
 SMD-CDS (non-electrostatic) energy       (kcal/mol) =      -0.45
 (included in total energy above)
 DoSCS=F DFT=T ScalE2(SS,OS)=  1.000000  1.000000
 ExpMin= 8.36D-02 ExpMax= 2.89D+03 ExpMxC= 4.35D+02 IAcc=3 IRadAn=         5 AccDes= 0.00D+00
 HarFok:  IExCor=  205 AccDes= 0.00D+00 IRadAn=         5 IDoV=-2 UseB2=F ITyADJ=14
 ICtDFT= 12500011 ScaDFX=  1.000000  1.000000  1.000000  1.000000
 GSVD:  LWork=        -609 too small for GESVD, short by        2520 words or        2520 for optimal perf.
 Range of M.O.s used for correlation:    22   354
 NBasis=   354 NAE=    73 NBE=    73 NFC=    21 NFV=     0
 NROrb=    333 NOA=    52 NOB=    52 NVA=   281 NVB=   281

 **** Warning!!: The largest alpha MO coefficient is  0.14718218D+02

 NEqPCM:  Using equilibrium solvation (IEInf=0, Eps=  24.8520, EpsInf=   1.8526)
 Orbital symmetries:
       Occupied  (A) (A) (A) (A) (A) (A) (A) (A) (A) (A) (A) (A)
                 (A) (A) (A) (A) (A) (A) (A) (A) (A) (A) (A) (A)
                 (A) (A) (A) (A) (A) (A) (A) (A) (A) (A) (A) (A)
                 (A) (A) (A) (A) (A) (A) (A) (A) (A) (A) (A) (A)
                 (A) (A) (A) (A) (A) (A) (A) (A) (A) (A) (A) (A)
                 (A) (A) (A) (A) (A) (A) (A) (A) (A) (A) (A) (A)
                 (A)
       Virtual   (A) (A) (A) (A) (A) (A) (A) (A) (A) (A) (A) (A)
                 (A) (A) (A) (A) (A) (A) (A) (A) (A) (A) (A) (A)
                 (A) (A) (A) (A) (A) (A) (A) (A) (A) (A) (A) (A)
                 (A) (A) (A) (A) (A) (A) (A) (A) (A) (A) (A) (A)
                 (A) (A) (A) (A) (A) (A) (A) (A) (A) (A) (A) (A)
                 (A) (A) (A) (A) (A) (A) (A) (A) (A) (A) (A) (A)
                 (A) (A) (A) (A) (A) (A) (A) (A) (A) (A) (A) (A)
                 (A) (A) (A) (A) (A) (A) (A) (A) (A) (A) (A) (A)
                 (A) (A) (A) (A) (A) (A) (A) (A) (A) (A) (A) (A)
                 (A) (A) (A) (A) (A) (A) (A) (A) (A) (A) (A) (A)
                 (A) (A) (A) (A) (A) (A) (A) (A) (A) (A) (A) (A)
                 (A) (A) (A) (A) (A) (A) (A) (A) (A) (A) (A) (A)
                 (A) (A) (A) (A) (A) (A) (A) (A) (A) (A) (A) (A)
                 (A) (A) (A) (A) (A) (A) (A) (A) (A) (A) (A) (A)
                 (A) (A) (A) (A) (A) (A) (A) (A) (A) (A) (A) (A)
                 (A) (A) (A) (A) (A) (A) (A) (A) (A) (A) (A) (A)
                 (A) (A) (A) (A) (A) (A) (A) (A) (A) (A) (A) (A)
                 (A) (A) (A) (A) (A) (A) (A) (A) (A) (A) (A) (A)
                 (A) (A) (A) (A) (A) (A) (A) (A) (A) (A) (A) (A)
                 (A) (A) (A) (A) (A) (A) (A) (A) (A) (A) (A) (A)
                 (A) (A) (A) (A) (A) (A) (A) (A) (A) (A) (A) (A)
                 (A) (A) (A) (A) (A) (A) (A) (A) (A) (A) (A) (A)
                 (A) (A) (A) (A) (A) (A) (A) (A) (A) (A) (A) (A)
                 (A) (A) (A) (A) (A)
    12 initial guesses have been made.
 Convergence on wavefunction:    0.000001000000000
 Iteration     1 Dimension    12 NMult     0 NNew     12
 CISAX will form    12 AO SS matrices at one time.
 Iteration     2 Dimension    18 NMult    12 NNew      6
 New state      1 was old state      2
 New state      2 was old state      1
 Iteration     3 Dimension    24 NMult    18 NNew      6
 Iteration     4 Dimension    30 NMult    24 NNew      6
 Iteration     5 Dimension    36 NMult    30 NNew      6
 Iteration     6 Dimension    42 NMult    36 NNew      6
 Iteration     7 Dimension    48 NMult    42 NNew      6
 Iteration     8 Dimension    54 NMult    48 NNew      6
 Iteration     9 Dimension    60 NMult    54 NNew      6
 Iteration    10 Dimension    66 NMult    60 NNew      6
 Iteration    11 Dimension    70 NMult    66 NNew      4
 Iteration    12 Dimension    72 NMult    70 NNew      2
 Iteration    13 Dimension    74 NMult    72 NNew      2
 PCM Corrected Linear-Response:
 The state of interest is root number   1
 Excitation energy =    3.1392 eV, Total energy =  -966.704773970    
 Recompute the excitation energies using the linear response reaction field.
 Convergence on wavefunction:    0.000001000000000
 Iteration     1 Dimension     3 NMult     0 NNew      3
 Iteration     2 Dimension     9 NMult     3 NNew      6
 Iteration     3 Dimension    15 NMult     9 NNew      6
 Iteration     4 Dimension    21 NMult    15 NNew      6
 Iteration     5 Dimension    27 NMult    21 NNew      6
 Iteration     6 Dimension    33 NMult    27 NNew      6
 Iteration     7 Dimension    39 NMult    33 NNew      6
 Iteration     8 Dimension    45 NMult    39 NNew      6
 Iteration     9 Dimension    51 NMult    45 NNew      6
 Iteration    10 Dimension    57 NMult    51 NNew      6
 Iteration    11 Dimension    63 NMult    57 NNew      6
 Iteration    12 Dimension    67 NMult    63 NNew      4
 Iteration    13 Dimension    69 NMult    67 NNew      2
 ***********************************************************************
 Excited states from <AA,BB:AA,BB> singles matrix:
 ***********************************************************************
 
 Ground to excited state transition densities written to RWF  633
 Ground to excited state transition electric dipole moments (Au):
       state          X           Y           Z        Dip. S.      Osc.
         1        -0.0770     -3.4362     -0.2373     11.8697      0.7690
         2         2.6709     -0.0694     -0.0322      7.1393      0.5222
         3         0.0015      0.8283      0.0797      0.6924      0.0681
 Ground to excited state transition velocity dipole moments (Au):
       state          X           Y           Z        Dip. S.      Osc.
         1         0.0071      0.3244      0.0225      0.1058      0.7259
         2        -0.2794      0.0076      0.0038      0.0782      0.4749
         3        -0.0002     -0.1231     -0.0122      0.0153      0.0692
 Ground to excited state transition magnetic dipole moments (Au):
       state          X           Y           Z
         1         0.0108      0.0202     -0.4199
         2         0.0513      0.0000     -0.0122
         3         0.0115      0.1604     -1.4470
 Ground to excited state transition velocity quadrupole moments (Au):
       state          XX          YY          ZZ          XY          XZ          YZ
         1        -0.0211      0.0180     -0.0060      0.9865      0.0586     -0.0366
         2         1.4803     -0.6747      0.0274      0.0249      0.0062     -0.0957
         3        -0.0084     -0.0023      0.0025      0.1775      0.0136      0.0139
 <0|del|b> * <b|rxdel|0> + <0|del|b> * <b|delr+rdel|0>
 Rotatory Strengths (R) in cgs (10**-40 erg-esu-cm/Gauss)
       state          XX          YY          ZZ    R(velocity)    E-M Angle
         1         1.0410   -115.7684     94.2022     -6.8418       91.18
         2         0.0047     39.4725   -132.2338    -30.9188      167.35
         3        -6.0550     47.6138    -51.3280     -3.2564       90.65
 1/2[<0|r|b>*<b|rxdel|0> + (<0|rxdel|b>*<b|r|0>)*]
 Rotatory Strengths (R) in cgs (10**-40 erg-esu-cm/Gauss)
       state          XX          YY          ZZ     R(length)
         1         0.5881     49.0343    -70.4673     -6.9483
         2       -96.9614      0.0022     -0.2769    -32.4120
         3        -0.0119    -93.9225     81.5103     -4.1414
  1/2[<0|del|b>*<b|r|0> + (<0|r|b>*<b|del|0>)*] (Au)
       state          X           Y           Z        Dip. S.   Osc.(frdel)
         1        -0.0005     -1.1148     -0.0053      1.1207      0.7471
         2        -0.7464     -0.0005     -0.0001      0.7470      0.4980
         3        -0.0000     -0.1020     -0.0010      0.1029      0.0686

 Excitation energies and oscillator strengths:
 
 Excited State   1:      Singlet-A      2.6443 eV  468.88 nm  f=0.7690  <S**2>=0.000
      72 -> 74         0.69766
 This state for optimization and/or second-order correction.
 Total Energy, E(TD-HF/TD-DFT) =  -966.722961557    
 Copying the excited state density for this state as the 1-particle RhoCI density.
 
 Excited State   2:      Singlet-A      2.9856 eV  415.27 nm  f=0.5222  <S**2>=0.000
      68 -> 74         0.11208
      73 -> 74         0.68256
 
 Excited State   3:      Singlet-A      4.0153 eV  308.78 nm  f=0.0681  <S**2>=0.000
      70 -> 74         0.50615
      71 -> 74         0.48582
 SavETr:  write IOETrn=   770 NScale= 10 NData=  16 NLR=1 NState=    3 LETran=      64.
 NEqPCM:  Using equilibrium solvation (IEInf=0, Eps=  24.8520, EpsInf=   1.8526)
          Differentiating once with respect to electric field.
                with respect to dipole field.
          Electric field/nuclear overlap derivatives assumed to be zero.
          There are     1 degrees of freedom in the 1st order CPHF.  IDoFFX=0 NUNeed=     1.
 LinEq1:  Iter=  0 NonCon=     1 RMS=3.00D-03 Max=2.09D-01 NDo=     1
 AX will form     1 AO Fock derivatives at one time.
 LinEq1:  Iter=  1 NonCon=     1 RMS=8.33D-04 Max=6.96D-02 NDo=     1
 LinEq1:  Iter=  2 NonCon=     1 RMS=4.83D-04 Max=2.67D-02 NDo=     1
 LinEq1:  Iter=  3 NonCon=     1 RMS=1.14D-04 Max=4.63D-03 NDo=     1
 LinEq1:  Iter=  4 NonCon=     1 RMS=5.49D-05 Max=3.01D-03 NDo=     1
 LinEq1:  Iter=  5 NonCon=     1 RMS=1.90D-05 Max=5.58D-04 NDo=     1
 LinEq1:  Iter=  6 NonCon=     1 RMS=9.29D-06 Max=3.54D-04 NDo=     1
 LinEq1:  Iter=  7 NonCon=     1 RMS=4.32D-06 Max=1.48D-04 NDo=     1
 LinEq1:  Iter=  8 NonCon=     1 RMS=2.19D-06 Max=1.02D-04 NDo=     1
 LinEq1:  Iter=  9 NonCon=     1 RMS=9.07D-07 Max=5.28D-05 NDo=     1
 LinEq1:  Iter= 10 NonCon=     1 RMS=3.81D-07 Max=2.28D-05 NDo=     1
 LinEq1:  Iter= 11 NonCon=     1 RMS=2.04D-07 Max=1.36D-05 NDo=     1
 LinEq1:  Iter= 12 NonCon=     1 RMS=6.47D-08 Max=2.62D-06 NDo=     1
 LinEq1:  Iter= 13 NonCon=     1 RMS=2.88D-08 Max=1.37D-06 NDo=     1
 LinEq1:  Iter= 14 NonCon=     1 RMS=1.18D-08 Max=5.32D-07 NDo=     1
 LinEq1:  Iter= 15 NonCon=     1 RMS=4.12D-09 Max=1.22D-07 NDo=     1
 LinEq1:  Iter= 16 NonCon=     1 RMS=2.16D-09 Max=1.33D-07 NDo=     1
 LinEq1:  Iter= 17 NonCon=     1 RMS=8.84D-10 Max=5.85D-08 NDo=     1
 LinEq1:  Iter= 18 NonCon=     1 RMS=4.17D-10 Max=1.64D-08 NDo=     1
 LinEq1:  Iter= 19 NonCon=     1 RMS=2.05D-10 Max=9.20D-09 NDo=     1
 LinEq1:  Iter= 20 NonCon=     1 RMS=7.39D-11 Max=2.13D-09 NDo=     1
 LinEq1:  Iter= 21 NonCon=     0 RMS=3.52D-11 Max=9.54D-10 NDo=     1
 Linear equations converged to 1.000D-10 1.000D-09 after    21 iterations.
 PCM Corrected Linear-Response - Equilibrium solvation:
 Corrected transition energy               =    3.1084          eV
 Total energy after correction             = -966.705904520     a.u.
 NEqPCM:  Using non-equilibrium solvation (IEInf=1, Eps=  24.8520, EpsInf=   1.8526)
 Inv3:  Mode=1 IEnd=    19953723.
 Iteration    1 A*A^-1 deviation from unit magnitude is 6.00D-15 for   2571.
 Iteration    1 A*A^-1 deviation from orthogonality  is 4.67D-15 for   2556    582.
 Iteration    1 A^-1*A deviation from unit magnitude is 6.22D-15 for   2578.
 Iteration    1 A^-1*A deviation from orthogonality  is 1.56D-15 for   2565   1044.
 End of Minotr F.D. properties file   721 does not exist.
 End of Minotr F.D. properties file   722 does not exist.
 End of Minotr F.D. properties file   788 does not exist.

 **********************************************************************

            Population analysis using the CI Density.

 **********************************************************************

 Orbital symmetries:
       Occupied  (A) (A) (A) (A) (A) (A) (A) (A) (A) (A) (A) (A)
                 (A) (A) (A) (A) (A) (A) (A) (A) (A) (A) (A) (A)
                 (A) (A) (A) (A) (A) (A) (A) (A) (A) (A) (A) (A)
                 (A) (A) (A) (A) (A) (A) (A) (A) (A) (A) (A) (A)
                 (A) (A) (A) (A) (A) (A) (A) (A) (A) (A) (A) (A)
                 (A) (A) (A) (A) (A) (A) (A) (A) (A) (A) (A) (A)
                 (A)
       Virtual   (A) (A) (A) (A) (A) (A) (A) (A) (A) (A) (A) (A)
                 (A) (A) (A) (A) (A) (A) (A) (A) (A) (A) (A) (A)
                 (A) (A) (A) (A) (A) (A) (A) (A) (A) (A) (A) (A)
                 (A) (A) (A) (A) (A) (A) (A) (A) (A) (A) (A) (A)
                 (A) (A) (A) (A) (A) (A) (A) (A) (A) (A) (A) (A)
                 (A) (A) (A) (A) (A) (A) (A) (A) (A) (A) (A) (A)
                 (A) (A) (A) (A) (A) (A) (A) (A) (A) (A) (A) (A)
                 (A) (A) (A) (A) (A) (A) (A) (A) (A) (A) (A) (A)
                 (A) (A) (A) (A) (A) (A) (A) (A) (A) (A) (A) (A)
                 (A) (A) (A) (A) (A) (A) (A) (A) (A) (A) (A) (A)
                 (A) (A) (A) (A) (A) (A) (A) (A) (A) (A) (A) (A)
                 (A) (A) (A) (A) (A) (A) (A) (A) (A) (A) (A) (A)
                 (A) (A) (A) (A) (A) (A) (A) (A) (A) (A) (A) (A)
                 (A) (A) (A) (A) (A) (A) (A) (A) (A) (A) (A) (A)
                 (A) (A) (A) (A) (A) (A) (A) (A) (A) (A) (A) (A)
                 (A) (A) (A) (A) (A) (A) (A) (A) (A) (A) (A) (A)
                 (A) (A) (A) (A) (A) (A) (A) (A) (A) (A) (A) (A)
                 (A) (A) (A) (A) (A) (A) (A) (A) (A) (A) (A) (A)
                 (A) (A) (A) (A) (A) (A) (A) (A) (A) (A) (A) (A)
                 (A) (A) (A) (A) (A) (A) (A) (A) (A) (A) (A) (A)
                 (A) (A) (A) (A) (A) (A) (A) (A) (A) (A) (A) (A)
                 (A) (A) (A) (A) (A) (A) (A) (A) (A) (A) (A) (A)
                 (A) (A) (A) (A) (A) (A) (A) (A) (A) (A) (A) (A)
                 (A) (A) (A) (A) (A)
 The electronic state is 1-A.
 Alpha  occ. eigenvalues --  -24.76816 -24.76713 -14.48283 -14.48270 -14.45054
 Alpha  occ. eigenvalues --  -10.36899 -10.35250 -10.34605 -10.34589 -10.34206
 Alpha  occ. eigenvalues --  -10.34183 -10.31587 -10.31458 -10.31437 -10.31391
 Alpha  occ. eigenvalues --  -10.31386 -10.30000 -10.29978 -10.29966 -10.29958
 Alpha  occ. eigenvalues --   -6.94061  -1.25447  -1.21992  -1.09132  -1.07289
 Alpha  occ. eigenvalues --   -1.01620  -0.95767  -0.90853  -0.88725  -0.87264
 Alpha  occ. eigenvalues --   -0.84500  -0.82609  -0.81821  -0.75630  -0.71237
 Alpha  occ. eigenvalues --   -0.70089  -0.69867  -0.67071  -0.66980  -0.66502
 Alpha  occ. eigenvalues --   -0.62937  -0.61861  -0.60029  -0.59834  -0.59336
 Alpha  occ. eigenvalues --   -0.57718  -0.55665  -0.53936  -0.53035  -0.52982
 Alpha  occ. eigenvalues --   -0.52560  -0.52205  -0.51428  -0.51281  -0.50488
 Alpha  occ. eigenvalues --   -0.49694  -0.48779  -0.48438  -0.47676  -0.46861
 Alpha  occ. eigenvalues --   -0.46651  -0.46499  -0.45216  -0.45196  -0.43314
 Alpha  occ. eigenvalues --   -0.42737  -0.41423  -0.37430  -0.35064  -0.34369
 Alpha  occ. eigenvalues --   -0.33983  -0.28725  -0.28243
 Alpha virt. eigenvalues --   -0.05082   0.05449   0.06702   0.09383   0.11336
 Alpha virt. eigenvalues --    0.13534   0.15650   0.16955   0.17562   0.17764
 Alpha virt. eigenvalues --    0.17973   0.18394   0.20352   0.21039   0.21749
 Alpha virt. eigenvalues --    0.22374   0.22459   0.22581   0.23589   0.24335
 Alpha virt. eigenvalues --    0.25959   0.26111   0.27738   0.28208   0.28882
 Alpha virt. eigenvalues --    0.30663   0.31122   0.31985   0.33792   0.34905
 Alpha virt. eigenvalues --    0.35907   0.36249   0.37254   0.38423   0.39087
 Alpha virt. eigenvalues --    0.39921   0.39975   0.41581   0.43852   0.44533
 Alpha virt. eigenvalues --    0.45334   0.45748   0.47250   0.48547   0.48661
 Alpha virt. eigenvalues --    0.48952   0.49492   0.49685   0.49917   0.50349
 Alpha virt. eigenvalues --    0.51369   0.52703   0.52960   0.54155   0.54604
 Alpha virt. eigenvalues --    0.55549   0.56747   0.57575   0.57641   0.59025
 Alpha virt. eigenvalues --    0.59399   0.60043   0.60224   0.62638   0.63601
 Alpha virt. eigenvalues --    0.64209   0.64775   0.65476   0.66107   0.66390
 Alpha virt. eigenvalues --    0.67354   0.67592   0.69248   0.71816   0.72458
 Alpha virt. eigenvalues --    0.73429   0.73664   0.73801   0.74697   0.74920
 Alpha virt. eigenvalues --    0.76166   0.76742   0.77049   0.77982   0.79121
 Alpha virt. eigenvalues --    0.79234   0.79292   0.80384   0.81189   0.81641
 Alpha virt. eigenvalues --    0.81899   0.82733   0.83344   0.83574   0.84747
 Alpha virt. eigenvalues --    0.85087   0.87392   0.87733   0.89972   0.90251
 Alpha virt. eigenvalues --    0.91369   0.92443   0.94041   0.94424   0.95452
 Alpha virt. eigenvalues --    0.97600   0.98320   1.00436   1.01251   1.04040
 Alpha virt. eigenvalues --    1.05730   1.07131   1.08461   1.08909   1.13316
 Alpha virt. eigenvalues --    1.13523   1.14818   1.16319   1.17015   1.17771
 Alpha virt. eigenvalues --    1.20813   1.22373   1.23824   1.25220   1.26694
 Alpha virt. eigenvalues --    1.28679   1.29386   1.31790   1.32913   1.33097
 Alpha virt. eigenvalues --    1.33233   1.33875   1.35232   1.35851   1.36152
 Alpha virt. eigenvalues --    1.37256   1.38206   1.38440   1.39056   1.40601
 Alpha virt. eigenvalues --    1.41494   1.42218   1.43240   1.44828   1.46185
 Alpha virt. eigenvalues --    1.47397   1.49617   1.55943   1.57898   1.58715
 Alpha virt. eigenvalues --    1.59776   1.62938   1.63278   1.63401   1.68987
 Alpha virt. eigenvalues --    1.70451   1.71292   1.71703   1.72559   1.74293
 Alpha virt. eigenvalues --    1.74508   1.75203   1.76541   1.77731   1.78800
 Alpha virt. eigenvalues --    1.79028   1.80339   1.81277   1.82537   1.82894
 Alpha virt. eigenvalues --    1.83864   1.84511   1.84840   1.85096   1.85977
 Alpha virt. eigenvalues --    1.87340   1.87804   1.88655   1.91158   1.92101
 Alpha virt. eigenvalues --    1.93789   1.94285   1.94994   1.95386   1.95830
 Alpha virt. eigenvalues --    1.99278   2.00044   2.00776   2.01368   2.02109
 Alpha virt. eigenvalues --    2.02460   2.03166   2.03720   2.04835   2.06189
 Alpha virt. eigenvalues --    2.06753   2.07211   2.10317   2.11186   2.12179
 Alpha virt. eigenvalues --    2.14776   2.17316   2.20186   2.20727   2.20889
 Alpha virt. eigenvalues --    2.22339   2.22956   2.23419   2.25224   2.25704
 Alpha virt. eigenvalues --    2.26975   2.27628   2.28232   2.30897   2.33818
 Alpha virt. eigenvalues --    2.34106   2.35166   2.35910   2.39046   2.40179
 Alpha virt. eigenvalues --    2.40547   2.41275   2.41896   2.43033   2.43351
 Alpha virt. eigenvalues --    2.45462   2.46518   2.54233   2.57265   2.60388
 Alpha virt. eigenvalues --    2.62376   2.64119   2.64548   2.66558   2.67929
 Alpha virt. eigenvalues --    2.71327   2.72122   2.73740   2.74633   2.75158
 Alpha virt. eigenvalues --    2.76526   2.77373   2.78214   2.79359   2.79473
 Alpha virt. eigenvalues --    2.80874   2.80943   2.82481   2.87005   2.90294
 Alpha virt. eigenvalues --    2.94204   2.95056   2.95345   2.97390   2.99882
 Alpha virt. eigenvalues --    3.03226   3.06699   3.08658   3.08822   3.13566
 Alpha virt. eigenvalues --    3.17592   3.18656   3.19075   3.21445   3.22592
 Alpha virt. eigenvalues --    3.25905   3.26500   3.28583   3.32208   3.34183
 Alpha virt. eigenvalues --    3.38429   3.49809   3.52955   3.54048   3.54643
 Alpha virt. eigenvalues --    3.57898   3.59069   3.69780   3.72478   3.83513
 Alpha virt. eigenvalues --    3.83866
          Condensed to atoms (all electrons):
               1          2          3          4          5          6
     1  C    5.126111  -0.012018   0.272162   0.380798  -0.002626  -0.125730
     2  C   -0.012018   5.126398   0.271474   0.011643  -0.000589  -0.000239
     3  C    0.272162   0.271474   5.535423  -0.118194   0.020328   0.011888
     4  C    0.380798   0.011643  -0.118194   5.147000   0.367522  -0.030473
     5  C   -0.002626  -0.000589   0.020328   0.367522   5.017524   0.375223
     6  C   -0.125730  -0.000239   0.011888  -0.030473   0.375223   4.867485
     7  H    0.010781   0.000005  -0.000396  -0.053421   0.448185  -0.049681
     8  C   -0.000284  -0.125776   0.011965   0.000012   0.000000   0.000101
     9  C    0.011871   0.378054  -0.118285  -0.000051   0.000001   0.000015
    10  C   -0.000623  -0.001327   0.020269   0.000001   0.000000  -0.000001
    11  H    0.000005   0.010777  -0.000394  -0.000000   0.000000   0.000000
    12  N    0.432924  -0.004547  -0.078463  -0.086755  -0.061056   0.417823
    13  N   -0.004342   0.432717  -0.078857  -0.000176  -0.000045  -0.000256
    14  B   -0.050564  -0.050313  -0.004978   0.002546  -0.000939  -0.012207
    15  F   -0.003252  -0.003251   0.001567  -0.000040  -0.000070  -0.001661
    16  F   -0.003282  -0.003232   0.001598  -0.000083   0.000138   0.001006
    17  C   -0.069217  -0.069364   0.369202  -0.010387   0.000465  -0.000165
    18  C    0.005396  -0.019010  -0.074513   0.000390   0.000001  -0.000001
    19  C   -0.019115   0.005576  -0.074588  -0.000349   0.000102  -0.000027
    20  C   -0.000123   0.001394   0.009597  -0.000034  -0.000001   0.000000
    21  H   -0.000301  -0.001398  -0.012985  -0.000005   0.000001  -0.000001
    22  C    0.001329  -0.000103   0.009831  -0.000816  -0.000012  -0.000000
    23  H   -0.001162  -0.000165  -0.013370   0.002849   0.000400  -0.000065
    24  C    0.000003  -0.000034   0.001128   0.000001   0.000001  -0.000000
    25  H   -0.000001  -0.000001  -0.000287   0.000000  -0.000000   0.000000
    26  H   -0.000010   0.000001  -0.000281   0.000004  -0.000000   0.000000
    27  H   -0.000263  -0.033293  -0.018124  -0.000001   0.000000  -0.000000
    28  H    0.000042   0.003215  -0.000445  -0.000000   0.000000   0.000006
    29  H   -0.032679  -0.000293  -0.018577   0.448491  -0.058528   0.010307
    30  H    0.003222   0.000044  -0.000446   0.009182  -0.049162   0.424697
    31  N   -0.000000  -0.000000   0.000009   0.000000   0.000000  -0.000000
    32  H    0.000000  -0.000000  -0.000000  -0.000000  -0.000000   0.000000
    33  H    0.000000  -0.000000   0.000000  -0.000000  -0.000000   0.000000
               7          8          9         10         11         12
     1  C    0.010781  -0.000284   0.011871  -0.000623   0.000005   0.432924
     2  C    0.000005  -0.125776   0.378054  -0.001327   0.010777  -0.004547
     3  C   -0.000396   0.011965  -0.118285   0.020269  -0.000394  -0.078463
     4  C   -0.053421   0.000012  -0.000051   0.000001  -0.000000  -0.086755
     5  C    0.448185   0.000000   0.000001   0.000000   0.000000  -0.061056
     6  C   -0.049681   0.000101   0.000015  -0.000001   0.000000   0.417823
     7  H    0.584959   0.000000  -0.000000   0.000000  -0.000000   0.004030
     8  C    0.000000   4.867365  -0.029708   0.372872  -0.049662  -0.000183
     9  C   -0.000000  -0.029708   5.149682   0.366625  -0.053282  -0.000165
    10  C    0.000000   0.372872   0.366625   5.017778   0.448118  -0.000052
    11  H   -0.000000  -0.049662  -0.053282   0.448118   0.584399   0.000002
    12  N    0.004030  -0.000183  -0.000165  -0.000052   0.000002   6.401757
    13  N    0.000002   0.417332  -0.086628  -0.060830   0.004026  -0.051576
    14  B    0.000138  -0.011485   0.002413  -0.001090   0.000133   0.297012
    15  F    0.000001  -0.000752  -0.000027  -0.000165   0.000001  -0.034984
    16  F    0.000000   0.000070  -0.000091   0.000191   0.000001  -0.035114
    17  C   -0.000002  -0.000181  -0.010787   0.000537  -0.000002   0.003811
    18  C    0.000000  -0.000031  -0.000488   0.000163  -0.000003  -0.000055
    19  C   -0.000003  -0.000004   0.000287   0.000008   0.000000   0.000042
    20  C   -0.000000  -0.000000  -0.000712  -0.000015  -0.000000   0.000001
    21  H    0.000000  -0.000080   0.002851   0.000512   0.000002  -0.000000
    22  C   -0.000000   0.000000  -0.000028  -0.000001  -0.000000   0.000003
    23  H    0.000000  -0.000001  -0.000020   0.000001   0.000000  -0.000223
    24  C   -0.000000  -0.000000   0.000001   0.000001   0.000000  -0.000000
    25  H   -0.000000   0.000000   0.000001  -0.000001  -0.000000  -0.000000
    26  H   -0.000000   0.000000  -0.000000  -0.000000  -0.000000  -0.000000
    27  H   -0.000000   0.010291   0.448783  -0.058197  -0.004643  -0.000013
    28  H   -0.000000   0.424223   0.009152  -0.048884  -0.003269   0.000161
    29  H   -0.004599  -0.000000   0.000000   0.000000  -0.000000   0.004507
    30  H   -0.003281   0.000007  -0.000000   0.000000  -0.000000  -0.029636
    31  N   -0.000000  -0.000000   0.000000   0.000000  -0.000000   0.000000
    32  H   -0.000000  -0.000000   0.000000   0.000000  -0.000000  -0.000000
    33  H   -0.000000  -0.000000   0.000000   0.000000  -0.000000  -0.000000
              13         14         15         16         17         18
     1  C   -0.004342  -0.050564  -0.003252  -0.003282  -0.069217   0.005396
     2  C    0.432717  -0.050313  -0.003251  -0.003232  -0.069364  -0.019010
     3  C   -0.078857  -0.004978   0.001567   0.001598   0.369202  -0.074513
     4  C   -0.000176   0.002546  -0.000040  -0.000083  -0.010387   0.000390
     5  C   -0.000045  -0.000939  -0.000070   0.000138   0.000465   0.000001
     6  C   -0.000256  -0.012207  -0.001661   0.001006  -0.000165  -0.000001
     7  H    0.000002   0.000138   0.000001   0.000000  -0.000002   0.000000
     8  C    0.417332  -0.011485  -0.000752   0.000070  -0.000181  -0.000031
     9  C   -0.086628   0.002413  -0.000027  -0.000091  -0.010787  -0.000488
    10  C   -0.060830  -0.001090  -0.000165   0.000191   0.000537   0.000163
    11  H    0.004026   0.000133   0.000001   0.000001  -0.000002  -0.000003
    12  N   -0.051576   0.297012  -0.034984  -0.035114   0.003811  -0.000055
    13  N    6.405920   0.295438  -0.036127  -0.034158   0.003718   0.000047
    14  B    0.295438   3.417335   0.463617   0.451968   0.002723   0.000054
    15  F   -0.036127   0.463617   8.888942  -0.026550   0.000005   0.000000
    16  F   -0.034158   0.451968  -0.026550   8.895030   0.000004  -0.000000
    17  C    0.003718   0.002723   0.000005   0.000004   5.423501   0.266835
    18  C    0.000047   0.000054   0.000000  -0.000000   0.266835   5.072717
    19  C   -0.000050   0.000005  -0.000000   0.000000   0.267483   0.058537
    20  C    0.000003  -0.000002  -0.000000   0.000000   0.079693   0.316874
    21  H   -0.000206   0.000017  -0.000000   0.000000  -0.073948   0.458661
    22  C    0.000001  -0.000001   0.000000  -0.000000   0.079982  -0.118761
    23  H   -0.000000   0.000024   0.000000  -0.000000  -0.074089   0.012849
    24  C   -0.000000   0.000000   0.000000   0.000000  -0.164659   0.108372
    25  H   -0.000000  -0.000000   0.000000  -0.000000   0.015010  -0.062000
    26  H   -0.000000  -0.000000  -0.000000   0.000000   0.014957  -0.002335
    27  H    0.004489   0.000228   0.000001   0.000001   0.004069   0.003604
    28  H   -0.029494   0.001121   0.000104   0.001058   0.000003   0.000000
    29  H   -0.000013   0.000239   0.000001   0.000001   0.004667  -0.000279
    30  H    0.000159   0.000953   0.000050   0.001214   0.000002  -0.000000
    31  N    0.000000   0.000000   0.000000   0.000000  -0.000234   0.006504
    32  H   -0.000000  -0.000000  -0.000000   0.000000  -0.000009  -0.000438
    33  H   -0.000000  -0.000000  -0.000000   0.000000  -0.000011   0.000509
              19         20         21         22         23         24
     1  C   -0.019115  -0.000123  -0.000301   0.001329  -0.001162   0.000003
     2  C    0.005576   0.001394  -0.001398  -0.000103  -0.000165  -0.000034
     3  C   -0.074588   0.009597  -0.012985   0.009831  -0.013370   0.001128
     4  C   -0.000349  -0.000034  -0.000005  -0.000816   0.002849   0.000001
     5  C    0.000102  -0.000001   0.000001  -0.000012   0.000400   0.000001
     6  C   -0.000027   0.000000  -0.000001  -0.000000  -0.000065  -0.000000
     7  H   -0.000003  -0.000000   0.000000  -0.000000   0.000000  -0.000000
     8  C   -0.000004  -0.000000  -0.000080   0.000000  -0.000001  -0.000000
     9  C    0.000287  -0.000712   0.002851  -0.000028  -0.000020   0.000001
    10  C    0.000008  -0.000015   0.000512  -0.000001   0.000001   0.000001
    11  H    0.000000  -0.000000   0.000002  -0.000000   0.000000   0.000000
    12  N    0.000042   0.000001  -0.000000   0.000003  -0.000223  -0.000000
    13  N   -0.000050   0.000003  -0.000206   0.000001  -0.000000  -0.000000
    14  B    0.000005  -0.000002   0.000017  -0.000001   0.000024   0.000000
    15  F   -0.000000  -0.000000  -0.000000   0.000000   0.000000   0.000000
    16  F    0.000000   0.000000   0.000000  -0.000000  -0.000000   0.000000
    17  C    0.267483   0.079693  -0.073948   0.079982  -0.074089  -0.164659
    18  C    0.058537   0.316874   0.458661  -0.118761   0.012849   0.108372
    19  C    5.071160  -0.118414   0.012731   0.316796   0.459259   0.108264
    20  C   -0.118414   5.254834  -0.056514   0.031817  -0.001995   0.217243
    21  H    0.012731  -0.056514   0.635115  -0.001969  -0.000158   0.014156
    22  C    0.316796   0.031817  -0.001969   5.255716  -0.056866   0.216974
    23  H    0.459259  -0.001995  -0.000158  -0.056866   0.635344   0.014226
    24  C    0.108264   0.217243   0.014156   0.216974   0.014226   5.127492
    25  H   -0.002312   0.460314  -0.011752   0.014259   0.000013  -0.074487
    26  H   -0.062043   0.014268   0.000013   0.460400  -0.011751  -0.074399
    27  H   -0.000272   0.001212  -0.001496  -0.000000  -0.000012  -0.000046
    28  H   -0.000000   0.000000  -0.000001   0.000000  -0.000000  -0.000000
    29  H    0.003329   0.000002  -0.000013   0.001088  -0.001410  -0.000046
    30  H    0.000000   0.000000  -0.000000   0.000000  -0.000001  -0.000000
    31  N    0.006517  -0.097160  -0.000085  -0.097187  -0.000085   0.462844
    32  H    0.000492   0.009791   0.000009  -0.022041  -0.000014  -0.005276
    33  H   -0.000457  -0.022058  -0.000016   0.009821   0.000009  -0.005155
              25         26         27         28         29         30
     1  C   -0.000001  -0.000010  -0.000263   0.000042  -0.032679   0.003222
     2  C   -0.000001   0.000001  -0.033293   0.003215  -0.000293   0.000044
     3  C   -0.000287  -0.000281  -0.018124  -0.000445  -0.018577  -0.000446
     4  C    0.000000   0.000004  -0.000001  -0.000000   0.448491   0.009182
     5  C   -0.000000  -0.000000   0.000000   0.000000  -0.058528  -0.049162
     6  C    0.000000   0.000000  -0.000000   0.000006   0.010307   0.424697
     7  H   -0.000000  -0.000000  -0.000000  -0.000000  -0.004599  -0.003281
     8  C    0.000000   0.000000   0.010291   0.424223  -0.000000   0.000007
     9  C    0.000001  -0.000000   0.448783   0.009152   0.000000  -0.000000
    10  C   -0.000001  -0.000000  -0.058197  -0.048884   0.000000   0.000000
    11  H   -0.000000  -0.000000  -0.004643  -0.003269  -0.000000  -0.000000
    12  N   -0.000000  -0.000000  -0.000013   0.000161   0.004507  -0.029636
    13  N   -0.000000  -0.000000   0.004489  -0.029494  -0.000013   0.000159
    14  B   -0.000000  -0.000000   0.000228   0.001121   0.000239   0.000953
    15  F    0.000000  -0.000000   0.000001   0.000104   0.000001   0.000050
    16  F   -0.000000   0.000000   0.000001   0.001058   0.000001   0.001214
    17  C    0.015010   0.014957   0.004069   0.000003   0.004667   0.000002
    18  C   -0.062000  -0.002335   0.003604   0.000000  -0.000279  -0.000000
    19  C   -0.002312  -0.062043  -0.000272  -0.000000   0.003329   0.000000
    20  C    0.460314   0.014268   0.001212   0.000000   0.000002   0.000000
    21  H   -0.011752   0.000013  -0.001496  -0.000001  -0.000013  -0.000000
    22  C    0.014259   0.460400  -0.000000   0.000000   0.001088   0.000000
    23  H    0.000013  -0.011751  -0.000012  -0.000000  -0.001410  -0.000001
    24  C   -0.074487  -0.074399  -0.000046  -0.000000  -0.000046  -0.000000
    25  H    0.637575  -0.000167   0.000022  -0.000000  -0.000001  -0.000000
    26  H   -0.000167   0.637340  -0.000001  -0.000000   0.000020  -0.000000
    27  H    0.000022  -0.000001   0.591142  -0.000113  -0.000001  -0.000000
    28  H   -0.000000  -0.000000  -0.000113   0.549956  -0.000000  -0.000000
    29  H   -0.000001   0.000020  -0.000001  -0.000000   0.591222  -0.000114
    30  H   -0.000000  -0.000000  -0.000000  -0.000000  -0.000114   0.550946
    31  N   -0.009274  -0.009335  -0.000000   0.000000  -0.000001   0.000000
    32  H   -0.000246   0.004301  -0.000000   0.000000  -0.000000  -0.000000
    33  H    0.004213  -0.000235  -0.000000   0.000000   0.000000  -0.000000
              31         32         33
     1  C   -0.000000   0.000000   0.000000
     2  C   -0.000000  -0.000000  -0.000000
     3  C    0.000009  -0.000000   0.000000
     4  C    0.000000  -0.000000  -0.000000
     5  C    0.000000  -0.000000  -0.000000
     6  C   -0.000000   0.000000   0.000000
     7  H   -0.000000  -0.000000  -0.000000
     8  C   -0.000000  -0.000000  -0.000000
     9  C    0.000000   0.000000   0.000000
    10  C    0.000000   0.000000   0.000000
    11  H   -0.000000  -0.000000  -0.000000
    12  N    0.000000  -0.000000  -0.000000
    13  N    0.000000  -0.000000  -0.000000
    14  B    0.000000  -0.000000  -0.000000
    15  F    0.000000  -0.000000  -0.000000
    16  F    0.000000   0.000000   0.000000
    17  C   -0.000234  -0.000009  -0.000011
    18  C    0.006504  -0.000438   0.000509
    19  C    0.006517   0.000492  -0.000457
    20  C   -0.097160   0.009791  -0.022058
    21  H   -0.000085   0.000009  -0.000016
    22  C   -0.097187  -0.022041   0.009821
    23  H   -0.000085  -0.000014   0.000009
    24  C    0.462844  -0.005276  -0.005155
    25  H   -0.009274  -0.000246   0.004213
    26  H   -0.009335   0.004301  -0.000235
    27  H   -0.000000  -0.000000  -0.000000
    28  H    0.000000   0.000000   0.000000
    29  H   -0.000001  -0.000000   0.000000
    30  H    0.000000  -0.000000  -0.000000
    31  N    6.145614   0.370919   0.370827
    32  H    0.370919   0.506653  -0.026146
    33  H    0.370827  -0.026146   0.506606
 Mulliken charges:
               1
     1  C    0.080947
     2  C    0.083655
     3  C    0.076742
     4  C   -0.069653
     5  C   -0.056860
     6  C    0.111957
     7  H    0.063279
     8  C    0.113907
     9  C   -0.069465
    10  C   -0.055889
    11  H    0.063791
    12  N   -0.179251
    13  N   -0.181096
    14  B    0.195616
    15  F   -0.247408
    16  F   -0.249769
    17  C   -0.063614
    18  C   -0.033600
    19  C   -0.032956
    20  C   -0.100013
    21  H    0.036858
    22  C   -0.100229
    23  H    0.036414
    24  C    0.053396
    25  H    0.029122
    26  H    0.029254
    27  H    0.052632
    28  H    0.093164
    29  H    0.052680
    30  H    0.092164
    31  N   -0.149875
    32  H    0.162005
    33  H    0.162095
 Sum of Mulliken charges =  -0.00000
 Mulliken charges with hydrogens summed into heavy atoms:
               1
     1  C    0.080947
     2  C    0.083655
     3  C    0.076742
     4  C   -0.016973
     5  C    0.006419
     6  C    0.204121
     8  C    0.207071
     9  C   -0.016833
    10  C    0.007901
    12  N   -0.179251
    13  N   -0.181096
    14  B    0.195616
    15  F   -0.247408
    16  F   -0.249769
    17  C   -0.063614
    18  C    0.003258
    19  C    0.003458
    20  C   -0.070891
    22  C   -0.070975
    24  C    0.053396
    31  N    0.174224
 Electronic spatial extent (au):  <R**2>=           6241.4695
 Charge=             -0.0000 electrons
 Dipole moment (field-independent basis, Debye):
    X=             -8.6024    Y=              0.8497    Z=              0.2640  Tot=              8.6483
 Quadrupole moment (field-independent basis, Debye-Ang):
   XX=           -101.5418   YY=            -95.1786   ZZ=           -124.1561
   XY=             -4.3585   XZ=             -5.6986   YZ=             -3.3792
 Traceless Quadrupole moment (field-independent basis, Debye-Ang):
   XX=              5.4171   YY=             11.7802   ZZ=            -17.1972
   XY=             -4.3585   XZ=             -5.6986   YZ=             -3.3792
 Octapole moment (field-independent basis, Debye-Ang**2):
  XXX=           -272.9862  YYY=              2.2283  ZZZ=              2.1478  XYY=             50.5268
  XXY=             30.9421  XXZ=             26.4563  XZZ=            -15.6069  YZZ=             -0.6003
  YYZ=             -2.1163  XYZ=             24.6776
 Hexadecapole moment (field-independent basis, Debye-Ang**3):
 XXXX=          -4209.0119 YYYY=          -1831.3353 ZZZZ=           -361.6549 XXXY=           -187.5423
 XXXZ=           -190.2698 YYYX=             -5.0197 YYYZ=             28.8264 ZZZX=             -8.6053
 ZZZY=            -22.6908 XXYY=          -1103.8137 XXZZ=           -998.7112 YYZZ=           -450.4630
 XXYZ=            -86.1881 YYXZ=             -2.0380 ZZXY=              0.3454
 N-N= 1.583869891010D+03 E-N=-5.423001164175D+03  KE= 9.572715962217D+02
 Unable to Open any file for archive entry.
 1\1\GINC-X1002C0S7B1N0\SP\RwB97XD TD-FC\def2SVP\C15H12B1F2N3\1008721\1
 0-Oct-2025\0\\# td=(nstates=3,root=1) wb97xd scrf=(smd,solvent=ethanol
 ,correctedlr,noneq=save) def2svp\\BDP-NH2_ethanol_wb97xd_wb97xd_wb97xd
 \\0,1\C,0,0.628747,-1.207699,-0.100327\C,0,0.637675,1.217777,0.044253\
 C,0,-0.104406,0.007065,-0.014515\C,0,0.175765,-2.555915,-0.268033\C,0,
 1.303661,-3.35798,-0.328179\C,0,2.426854,-2.505904,-0.206688\H,0,1.344
 43,-4.438454,-0.455833\C,0,2.448672,2.501594,0.101538\C,0,0.197448,2.5
 78395,0.13595\C,0,1.332941,3.370614,0.163825\H,0,1.384098,4.456209,0.2
 29094\N,0,2.022588,-1.231605,-0.071301\N,0,2.032717,1.225927,0.033863\
 B,0,2.954668,-0.010807,0.062539\F,0,3.664913,-0.061405,1.267535\F,0,3.
 863752,0.02865,-0.997517\C,0,-1.57761,0.00708,-0.002447\C,0,-2.319858,
 0.82064,-0.876329\C,0,-2.297586,-0.811772,0.885319\C,0,-3.708003,0.818
 467,-0.868094\H,0,-1.798056,1.457602,-1.595108\C,0,-3.685477,-0.820394
 ,0.903372\H,0,-1.756649,-1.443112,1.595051\C,0,-4.424897,-0.00519,0.02
 299\H,0,-4.256785,1.455808,-1.56661\H,0,-4.216156,-1.460461,1.613343\H
 ,0,-0.839741,2.90195,0.182631\H,0,3.510429,2.74964,0.114555\H,0,-0.864
 498,-2.862926,-0.349288\H,0,3.486166,-2.763868,-0.219826\N,0,-5.796577
 ,-0.045764,0.002584\H,0,-6.261598,-0.422148,0.8207\H,0,-6.277611,0.738
 017,-0.423399\\Version=ES64L-G16RevC.01\State=1-A\HF=-966.820136\RMSD=
 9.489e-09\Dipole=-3.3844612,0.3343096,0.1038642\Quadrupole=4.0274475,8
 .7582818,-12.7857293,-3.2404021,-4.2367801,-2.5123801\PG=C01 [X(C15H12
 B1F2N3)]\\@
 The archive entry for this job was punched.


 HE THAT WALD REACHE THE SWEITE ROSE
 SULD NOW AND THEN BE SCRATCHED WT THE SCHARPE BREERES.
 -- PROVERBS AND REASONS OF THE YEAR 1585
           AS REPRINTED IN PAISLEY MAGAZINE 1828.
 Job cpu time:       0 days  3 hours 58 minutes 54.3 seconds.
 Elapsed time:       0 days  0 hours  7 minutes 35.8 seconds.
 File lengths (MBytes):  RWF=    804 Int=      0 D2E=      0 Chk=     25 Scr=      1
 Normal termination of Gaussian 16 at Fri Oct 10 15:30:52 2025.
