 Entering Gaussian System, Link 0=g16
 Initial command:
 /home/users/sutd/1008721/g16/l1.exe "/home/users/sutd/1008721/scratch/g16/scratch/Gau-2421535.inp" -scrdir="/home/users/sutd/1008721/scratch/g16/scratch/"
 Entering Link 1 = /home/users/sutd/1008721/g16/l1.exe PID=   2421536.
  
 Copyright (c) 1988-2019, Gaussian, Inc.  All Rights Reserved.
  
 This is part of the Gaussian(R) 16 program.  It is based on
 the Gaussian(R) 09 system (copyright 2009, Gaussian, Inc.),
 the Gaussian(R) 03 system (copyright 2003, Gaussian, Inc.),
 the Gaussian(R) 98 system (copyright 1998, Gaussian, Inc.),
 the Gaussian(R) 94 system (copyright 1995, Gaussian, Inc.),
 the Gaussian 92(TM) system (copyright 1992, Gaussian, Inc.),
 the Gaussian 90(TM) system (copyright 1990, Gaussian, Inc.),
 the Gaussian 88(TM) system (copyright 1988, Gaussian, Inc.),
 the Gaussian 86(TM) system (copyright 1986, Carnegie Mellon
 University), and the Gaussian 82(TM) system (copyright 1983,
 Carnegie Mellon University). Gaussian is a federally registered
 trademark of Gaussian, Inc.
  
 This software contains proprietary and confidential information,
 including trade secrets, belonging to Gaussian, Inc.
  
 This software is provided under written license and may be
 used, copied, transmitted, or stored only in accord with that
 written license.
  
 The following legend is applicable only to US Government
 contracts under FAR:
  
                    RESTRICTED RIGHTS LEGEND
  
 Use, reproduction and disclosure by the US Government is
 subject to restrictions as set forth in subparagraphs (a)
 and (c) of the Commercial Computer Software - Restricted
 Rights clause in FAR 52.227-19.
  
 Gaussian, Inc.
 340 Quinnipiac St., Bldg. 40, Wallingford CT 06492
  
  
 ---------------------------------------------------------------
 Warning -- This program may not be used in any manner that
 competes with the business of Gaussian, Inc. or will provide
 assistance to any competitor of Gaussian, Inc.  The licensee
 of this program is prohibited from giving any competitor of
 Gaussian, Inc. access to this program.  By using this program,
 the user acknowledges that Gaussian, Inc. is engaged in the
 business of creating and licensing software in the field of
 computational chemistry and represents and warrants to the
 licensee that it is not a competitor of Gaussian, Inc. and that
 it will not use this program in any manner prohibited above.
 ---------------------------------------------------------------
  

 Cite this work as:
 Gaussian 16, Revision C.01,
 M. J. Frisch, G. W. Trucks, H. B. Schlegel, G. E. Scuseria, 
 M. A. Robb, J. R. Cheeseman, G. Scalmani, V. Barone, 
 G. A. Petersson, H. Nakatsuji, X. Li, M. Caricato, A. V. Marenich, 
 J. Bloino, B. G. Janesko, R. Gomperts, B. Mennucci, H. P. Hratchian, 
 J. V. Ortiz, A. F. Izmaylov, J. L. Sonnenberg, D. Williams-Young, 
 F. Ding, F. Lipparini, F. Egidi, J. Goings, B. Peng, A. Petrone, 
 T. Henderson, D. Ranasinghe, V. G. Zakrzewski, J. Gao, N. Rega, 
 G. Zheng, W. Liang, M. Hada, M. Ehara, K. Toyota, R. Fukuda, 
 J. Hasegawa, M. Ishida, T. Nakajima, Y. Honda, O. Kitao, H. Nakai, 
 T. Vreven, K. Throssell, J. A. Montgomery, Jr., J. E. Peralta, 
 F. Ogliaro, M. J. Bearpark, J. J. Heyd, E. N. Brothers, K. N. Kudin, 
 V. N. Staroverov, T. A. Keith, R. Kobayashi, J. Normand, 
 K. Raghavachari, A. P. Rendell, J. C. Burant, S. S. Iyengar, 
 J. Tomasi, M. Cossi, J. M. Millam, M. Klene, C. Adamo, R. Cammi, 
 J. W. Ochterski, R. L. Martin, K. Morokuma, O. Farkas, 
 J. B. Foresman, and D. J. Fox, Gaussian, Inc., Wallingford CT, 2019.
 
 ******************************************
 Gaussian 16:  ES64L-G16RevC.01  3-Jul-2019
                10-Oct-2025 
 ******************************************
 %nprocshared=32
 Will use up to   32 processors via shared memory.
 %mem=64GB
 %chk=06BDP-NH2_ethanol_m062x_m062x_m062x.chk
 ----------------------------------------------------------------------
 # td=(nstates=3,root=1) scrf=(smd,solvent=ethanol,correctedlr,noneq=sa
 ve) def2svp m062x
 ----------------------------------------------------------------------
 1/30=1,38=1,172=1/1;
 2/12=2,17=6,18=5,40=1/2;
 3/5=43,7=101,11=9,25=1,30=1,70=9032201,71=1,72=4,74=-55/1,2,3,8;
 4//1;
 5/5=2,38=5,53=4/2;
 8/6=1,10=1,107=1,108=3/1;
 9/8=1,15=1,41=3,42=1,70=2,73=22/14;
 10/5=4,13=10,28=1,74=20/2;
 6/7=2,8=2,9=2,10=2,22=-1/1;
 99/5=1,9=1/99;
 ---------------------------------
 BDP-NH2_ethanol_m062x_m062x_m062x
 ---------------------------------
 Symbolic Z-matrix:
 Charge =  0 Multiplicity = 1
 C                    -0.61957   1.23066  -0.02482 
 C                    -0.6194   -1.23053  -0.02741 
 C                     0.09279   0.00011  -0.01529 
 C                    -0.16992   2.57072  -0.04872 
 C                    -1.32189   3.39194  -0.06427 
 C                    -2.42729   2.54615  -0.04886 
 H                    -1.35181   4.48103  -0.08754 
 C                    -2.4269   -2.54629  -0.05319 
 C                    -0.16953  -2.57048  -0.05279 
 C                    -1.32136  -3.39187  -0.06959 
 H                    -1.35109  -4.48095  -0.09391 
 N                    -2.00901   1.24129  -0.02437 
 N                    -2.00884  -1.24138  -0.02726 
 B                    -2.91709  -0.00019   0.05014 
 F                    -3.65521  -0.00164   1.25693 
 F                    -3.84817   0.00098  -1.01061 
 C                     1.57478   0.00015  -0.00343 
 C                     2.31204   0.00655  -1.22156 
 C                     2.28894  -0.00598   1.22846 
 C                     3.68622   0.00733  -1.22312 
 H                     1.76762   0.0115   -2.16755 
 C                     3.6626   -0.00691   1.25577 
 H                     1.72669  -0.01069   2.16395 
 C                     4.39649   0.00002   0.02326 
 H                     4.25469   0.01323  -2.15517 
 H                     4.21423  -0.01264   2.19796 
 H                     0.87127  -2.89013  -0.06334 
 H                    -3.48799  -2.79231  -0.05721 
 H                     0.87081   2.89054  -0.05966 
 H                    -3.48842   2.79199  -0.05314 
 N                     5.72634  -0.00035   0.03686 
 H                     6.24199  -0.00575   0.91561 
 H                     6.26039   0.00472  -0.83083 
 
                          Input orientation:                          
 ---------------------------------------------------------------------
 Center     Atomic      Atomic             Coordinates (Angstroms)
 Number     Number       Type             X           Y           Z
 ---------------------------------------------------------------------
      1          6           0       -0.619573    1.230661   -0.024820
      2          6           0       -0.619396   -1.230530   -0.027405
      3          6           0        0.092790    0.000105   -0.015291
      4          6           0       -0.169924    2.570715   -0.048718
      5          6           0       -1.321889    3.391935   -0.064267
      6          6           0       -2.427294    2.546153   -0.048856
      7          1           0       -1.351805    4.481031   -0.087539
      8          6           0       -2.426900   -2.546288   -0.053188
      9          6           0       -0.169528   -2.570484   -0.052793
     10          6           0       -1.321357   -3.391868   -0.069588
     11          1           0       -1.351091   -4.480946   -0.093910
     12          7           0       -2.009013    1.241292   -0.024374
     13          7           0       -2.008837   -1.241381   -0.027257
     14          5           0       -2.917092   -0.000194    0.050143
     15          9           0       -3.655205   -0.001637    1.256926
     16          9           0       -3.848173    0.000984   -1.010610
     17          6           0        1.574783    0.000149   -0.003434
     18          6           0        2.312039    0.006553   -1.221561
     19          6           0        2.288943   -0.005981    1.228456
     20          6           0        3.686219    0.007326   -1.223117
     21          1           0        1.767623    0.011495   -2.167546
     22          6           0        3.662602   -0.006907    1.255773
     23          1           0        1.726691   -0.010685    2.163948
     24          6           0        4.396489    0.000022    0.023255
     25          1           0        4.254689    0.013226   -2.155167
     26          1           0        4.214234   -0.012637    2.197961
     27          1           0        0.871266   -2.890132   -0.063337
     28          1           0       -3.487985   -2.792314   -0.057209
     29          1           0        0.870812    2.890536   -0.059656
     30          1           0       -3.488421    2.791992   -0.053144
     31          7           0        5.726341   -0.000351    0.036858
     32          1           0        6.241988   -0.005745    0.915609
     33          1           0        6.260394    0.004719   -0.830830
 ---------------------------------------------------------------------
                    Distance matrix (angstroms):
                    1          2          3          4          5
     1  C    0.000000
     2  C    2.461192   0.000000
     3  C    1.421907   1.421907   0.000000
     4  C    1.413683   3.827786   2.584216   0.000000
     5  C    2.272864   4.675686   3.675354   1.414803   0.000000
     6  C    2.235834   4.187158   3.582501   2.257504   1.391943
     7  H    3.332417   5.758643   4.708585   2.246699   1.089755
     8  C    4.187192   2.235834   3.582512   5.592645   6.040171
     9  C    3.827797   1.413684   2.584211   5.141201   6.072768
    10  C    4.675712   2.272864   3.675356   6.072778   6.783805
    11  H    5.758676   3.332417   4.708587   7.150043   7.872991
    12  N    1.389481   2.835657   2.440943   2.269407   2.258096
    13  N    2.835675   1.389483   2.440956   4.232510   4.684110
    14  B    2.607531   2.607517   3.010593   3.763812   3.750240
    15  F    3.518024   3.517928   3.958031   4.524255   4.325072
    16  F    3.592735   3.592815   4.064708   4.588929   4.333154
    17  C    2.515912   2.515863   1.482040   3.107067   4.460787
    18  C    3.394846   3.398484   2.525905   3.756412   5.099566
    19  C    3.399919   3.396343   2.523892   3.783723   5.123970
    20  C    4.633822   4.636845   3.790993   4.777030   6.154645
    21  H    3.431668   3.438123   2.727159   3.846183   5.039468
    22  C    4.637727   4.634577   3.789355   4.799384   6.175741
    23  H    3.440436   3.434265   2.723753   3.893156   5.082972
    24  C    5.165042   5.164874   4.303872   5.240780   6.649254
    25  H    5.457010   5.461777   4.679812   5.527665   6.847318
    26  H    5.463720   5.458891   4.678135   5.562564   6.881674
    27  H    4.382353   2.231063   2.993627   5.559239   6.653893
    28  H    4.940968   3.266322   4.541069   6.306479   6.552630
    29  H    2.231064   4.382345   2.993640   1.088823   2.249302
    30  H    3.266320   4.940916   4.541050   3.325869   2.248092
    31  N    6.464505   6.464197   5.633792   6.433012   7.822747
    32  H    7.035206   7.033347   6.219264   6.977155   8.349648
    33  H    7.034666   7.035826   6.221291   6.967426   8.339776
                    6          7          8          9         10
     6  C    0.000000
     7  H    2.214029   0.000000
     8  C    5.092443   7.109165   0.000000
     9  C    5.592629   7.150024   2.257502   0.000000
    10  C    6.040167   7.872978   1.391941   1.414802   0.000000
    11  H    7.109175   8.961979   2.214029   2.246697   1.089755
    12  N    1.370482   3.306330   3.810672   4.232511   4.684131
    13  N    3.810641   5.760323   1.370486   2.269411   2.258100
    14  B    2.594915   4.748732   2.594910   3.763787   3.750221
    15  F    3.115135   5.216086   3.114543   4.523747   4.324367
    16  F    3.069487   5.211020   3.070060   4.589367   4.333794
    17  C    4.743503   5.352597   4.743446   3.106962   4.460693
    18  C    5.503279   5.893277   5.508143   3.763683   5.106650
    19  C    5.512514   5.926227   5.507717   3.776553   5.116973
    20  C    6.723063   6.832661   6.727548   4.783466   6.161247
    21  H    5.339538   5.833868   5.348531   3.858931   5.052337
    22  C    6.731048   6.862241   6.726356   4.792650   6.168824
    23  H    5.356259   5.892524   5.347644   3.881000   5.070668
    24  C    7.283680   7.289348   7.283418   5.240400   6.648857
    25  H    7.449910   7.461176   7.457416   5.537981   6.858323
    26  H    7.463611   7.509817   7.455986   5.552103   6.870498
    27  H    6.358766   7.699135   3.316056   1.088824   2.249305
    28  H    5.442827   7.580616   1.089241   3.325866   2.248087
    29  H    3.316055   2.733218   6.358774   5.559235   6.653894
    30  H    1.089241   2.723814   5.442799   6.306441   6.552600
    31  N    8.542470   8.378449   8.541969   6.432332   7.822005
    32  H    9.088390   8.877114   9.085293   6.973036   8.345096
    33  H    9.085499   8.862021   9.087433   6.970001   8.342616
                   11         12         13         14         15
    11  H    0.000000
    12  N    5.760356   0.000000
    13  N    3.306335   2.482675   0.000000
    14  B    4.748710   1.539951   1.539956   0.000000
    15  F    5.215161   2.428281   2.428295   1.414616   0.000000
    16  F    5.211857   2.427660   2.427676   1.411421   2.275734
    17  C    5.352489   3.792686   3.792664   4.492195   5.379710
    18  C    5.901505   4.650734   4.653350   5.381551   6.461499
    19  C    5.918092   4.647332   4.644776   5.337720   5.944218
    20  C    6.840628   5.949397   5.951724   6.724951   7.749013
    21  H    5.848792   4.513155   4.517985   5.183130   6.413598
    22  C    6.853888   5.946763   5.944351   6.689242   7.317809
    23  H    5.878256   4.506849   4.502240   5.102255   5.457799
    24  C    7.288860   6.524835   6.524709   7.313630   8.145657
    25  H    7.474699   6.729219   6.733038   7.503200   8.614466
    26  H    7.496086   6.726062   6.722203   7.447757   7.925512
    27  H    2.733221   5.036486   3.318836   4.766159   5.529506
    28  H    2.723810   4.296326   2.143401   2.851908   3.089141
    29  H    7.699141   3.318832   5.036484   4.766193   5.530179
    30  H    7.580598   2.143396   4.296270   2.851909   3.090059
    31  N    8.377522   7.834611   7.834363   8.643443   9.460548
    32  H    8.871381   8.397481   8.395946   9.199881   9.903077
    33  H    8.865605   8.400153   8.401112   9.219674  10.133009
                   16         17         18         19         20
    16  F    0.000000
    17  C    5.515692   0.000000
    18  C    6.163825   1.423875   0.000000
    19  C    6.532814   1.423943   2.450158   0.000000
    20  C    7.537391   2.438409   1.374181   2.821838   0.000000
    21  H    5.733740   2.172716   1.091467   3.435827   2.138451
    22  C    7.845272   2.438163   2.821593   1.373931   2.479043
    23  H    6.415377   2.172726   3.435782   1.091464   3.913091
    24  C    8.309232   2.821832   2.427868   2.427817   1.434566
    25  H    8.183308   3.436862   2.155355   3.913238   1.091746
    26  H    8.677414   3.437005   3.913035   2.155627   3.461643
    27  H    5.615067   2.975273   3.436291   3.463649   4.202893
    28  H    2.973419   5.782072   6.544437   6.541367   7.788872
    29  H    5.614503   2.975411   3.427027   3.472771   4.194408
    30  H    2.972522   5.782118   6.539817   6.545921   7.784514
    31  N    9.631641   4.151754   3.638836   3.638082   2.397852
    32  H   10.272376   4.756835   4.473494   3.965405   3.332608
    33  H   10.110166   4.758104   3.967642   4.473611   2.603896
                   21         22         23         24         25
    21  H    0.000000
    22  C    3.912850   0.000000
    23  H    4.331744   2.138352   0.000000
    24  C    3.422087   1.434482   3.422061   0.000000
    25  H    2.487097   3.462006   5.004608   2.183072   0.000000
    26  H    5.004412   1.091810   2.487776   2.182366   4.353393
    27  H    3.694671   4.224286   3.739487   4.559351   4.924712
    28  H    6.319516   7.785455   6.313782   8.364720   8.498322
    29  H    3.679178   4.233157   3.754201   4.559862   4.911283
    30  H    6.310932   7.790008   6.322016   8.364971   8.490924
    31  N    4.531113   2.396834   4.530101   1.329922   2.640250
    32  H    5.433791   2.601720   4.684686   2.049926   3.657784
    33  H    4.687414   3.332052   5.433544   2.050274   2.403496
                   26         27         28         29         30
    26  H    0.000000
    27  H    4.956701   0.000000
    28  H    8.493325   4.360353   0.000000
    29  H    4.970284   5.780669   7.161976   0.000000
    30  H    8.500842   7.161949   5.584307   4.360352   0.000000
    31  N    2.637610   5.650896   9.628484   5.651788   9.628973
    32  H    2.399221   6.174357  10.167778   6.179734  10.170874
    33  H    3.655222   6.165380  10.171174   6.162000  10.169222
                   31         32         33
    31  N    0.000000
    32  H    1.018884   0.000000
    33  H    1.018882   1.746567   0.000000
 Stoichiometry    C15H12BF2N3
 Framework group  C1[X(C15H12BF2N3)]
 Deg. of freedom    93
 Full point group                 C1      NOp   1
 Largest Abelian subgroup         C1      NOp   1
 Largest concise Abelian subgroup C1      NOp   1
                         Standard orientation:                         
 ---------------------------------------------------------------------
 Center     Atomic      Atomic             Coordinates (Angstroms)
 Number     Number       Type             X           Y           Z
 ---------------------------------------------------------------------
      1          6           0       -0.619573    1.230661   -0.024820
      2          6           0       -0.619396   -1.230530   -0.027405
      3          6           0        0.092790    0.000105   -0.015291
      4          6           0       -0.169924    2.570715   -0.048718
      5          6           0       -1.321889    3.391935   -0.064267
      6          6           0       -2.427294    2.546153   -0.048856
      7          1           0       -1.351805    4.481031   -0.087539
      8          6           0       -2.426900   -2.546288   -0.053188
      9          6           0       -0.169528   -2.570484   -0.052793
     10          6           0       -1.321357   -3.391868   -0.069588
     11          1           0       -1.351091   -4.480946   -0.093910
     12          7           0       -2.009013    1.241292   -0.024374
     13          7           0       -2.008837   -1.241381   -0.027257
     14          5           0       -2.917092   -0.000194    0.050143
     15          9           0       -3.655205   -0.001637    1.256926
     16          9           0       -3.848173    0.000984   -1.010610
     17          6           0        1.574783    0.000149   -0.003434
     18          6           0        2.312039    0.006553   -1.221561
     19          6           0        2.288943   -0.005981    1.228456
     20          6           0        3.686219    0.007326   -1.223117
     21          1           0        1.767623    0.011495   -2.167546
     22          6           0        3.662602   -0.006907    1.255773
     23          1           0        1.726691   -0.010685    2.163948
     24          6           0        4.396489    0.000022    0.023255
     25          1           0        4.254689    0.013226   -2.155167
     26          1           0        4.214234   -0.012637    2.197961
     27          1           0        0.871266   -2.890132   -0.063337
     28          1           0       -3.487985   -2.792314   -0.057209
     29          1           0        0.870812    2.890536   -0.059656
     30          1           0       -3.488421    2.791992   -0.053144
     31          7           0        5.726341   -0.000351    0.036858
     32          1           0        6.241988   -0.005745    0.915609
     33          1           0        6.260394    0.004719   -0.830830
 ---------------------------------------------------------------------
 Rotational constants (GHZ):           0.5703769           0.2106994           0.1685602
 Standard basis: def2SVP (5D, 7F)
 There are   375 symmetry adapted cartesian basis functions of A   symmetry.
 There are   354 symmetry adapted basis functions of A   symmetry.
   354 basis functions,   609 primitive gaussians,   375 cartesian basis functions
    73 alpha electrons       73 beta electrons
       nuclear repulsion energy      1580.2731707943 Hartrees.
 NAtoms=   33 NActive=   33 NUniq=   33 SFac= 1.00D+00 NAtFMM=   60 NAOKFM=F Big=F
 Integral buffers will be    131072 words long.
 Regular integral format.
 Two-electron integral symmetry is turned on.
 ------------------------------------------------------------------------------
 Polarizable Continuum Model (PCM)
 =================================
 Model                : PCM.
 Atomic radii         : SMD-Coulomb.
 Polarization charges : Total charges.
 Charge compensation  : None.
 Solution method      : On-the-fly selection.
 Cavity type          : VdW (van der Waals Surface) (Alpha=1.000).
 Cavity algorithm     : GePol (No added spheres)
                        Default sphere list used, NSphG=   33.
                        Lebedev-Laikov grids with approx.  5.0 points / Ang**2.
                        Smoothing algorithm: York/Karplus (Gamma=1.0000).
                        Polarization charges: spherical gaussians, with
                                              point-specific exponents (IZeta= 3).
                        Self-potential: point-specific (ISelfS= 7).
                        Self-field    : sphere-specific E.n sum rule (ISelfD= 2).
 1st derivatives      : Analytical E(r).r(x)/FMM algorithm (CHGder, D1EAlg=3).
                        Cavity 1st derivative terms included.
 Solvent              : Ethanol, Eps=  24.852000 Eps(inf)=   1.852593
 ------------------------------------------------------------------------------
 ------------------------------------------------------------------------------
 Atomic radii for non-electrostatic terms: SMD-CDS.
 ------------------------------------------------------------------------------
 Nuclear repulsion after PCM non-electrostatic terms =     1580.2725621907 Hartrees.
 One-electron integrals computed using PRISM.
   1 Symmetry operations used in ECPInt.
 ECPInt:  NShTT=   13203 NPrTT=   49137 LenC2=   11963 LenP2D=   30951.
 LDataN:  DoStor=T MaxTD1= 4 Len=   56
 NBasis=   354 RedAO= T EigKep=  2.83D-04  NBF=   354
 NBsUse=   354 1.00D-06 EigRej= -1.00D+00 NBFU=   354
 ExpMin= 8.36D-02 ExpMax= 2.89D+03 ExpMxC= 4.35D+02 IAcc=3 IRadAn=         5 AccDes= 0.00D+00
 Harris functional with IExCor= 1009 and IRadAn=       5 diagonalized for initial guess.
 HarFok:  IExCor= 1009 AccDes= 0.00D+00 IRadAn=         5 IDoV= 1 UseB2=F ITyADJ=14
 ICtDFT=  3500011 ScaDFX=  1.000000  1.000000  1.000000  1.000000
 FoFCou: FMM=F IPFlag=           0 FMFlag=      100000 FMFlg1=           0
         NFxFlg=           0 DoJE=T BraDBF=F KetDBF=T FulRan=T
         wScrn=  0.000000 ICntrl=       500 IOpCl=  0 I1Cent=   200000004 NGrid=           0
         NMat0=    1 NMatS0=      1 NMatT0=    0 NMatD0=    1 NMtDS0=    0 NMtDT0=    0
 Petite list used in FoFCou.
 Requested convergence on RMS density matrix=1.00D-08 within 128 cycles.
 Requested convergence on MAX density matrix=1.00D-06.
 Requested convergence on             energy=1.00D-06.
 No special actions if energy rises.
 Inv3:  Mode=1 IEnd=    20342448.
 Iteration    1 A*A^-1 deviation from unit magnitude is 4.88D-15 for   2603.
 Iteration    1 A*A^-1 deviation from orthogonality  is 2.29D-15 for   1331    477.
 Iteration    1 A^-1*A deviation from unit magnitude is 5.11D-15 for   2603.
 Iteration    1 A^-1*A deviation from orthogonality  is 1.14D-13 for   1647   1582.
 Error on total polarization charges =  0.03870
 SCF Done:  E(RM062X) =  -966.733949270     A.U. after   13 cycles
            NFock= 13  Conv=0.45D-08     -V/T= 2.0101
 SMD-CDS (non-electrostatic) energy       (kcal/mol) =      -0.38
 (included in total energy above)
 DoSCS=F DFT=T ScalE2(SS,OS)=  1.000000  1.000000
 ExpMin= 8.36D-02 ExpMax= 2.89D+03 ExpMxC= 4.35D+02 IAcc=3 IRadAn=         5 AccDes= 0.00D+00
 HarFok:  IExCor=  205 AccDes= 0.00D+00 IRadAn=         5 IDoV=-2 UseB2=F ITyADJ=14
 ICtDFT= 12500011 ScaDFX=  1.000000  1.000000  1.000000  1.000000
 GSVD:  LWork=        -609 too small for GESVD, short by        2520 words or        2520 for optimal perf.
 Range of M.O.s used for correlation:    22   354
 NBasis=   354 NAE=    73 NBE=    73 NFC=    21 NFV=     0
 NROrb=    333 NOA=    52 NOB=    52 NVA=   281 NVB=   281

 **** Warning!!: The largest alpha MO coefficient is  0.13732504D+02

 Keep R1, R2, and R3 ints in memory in canonical form, NReq=6183477328.
 NEqPCM:  Using equilibrium solvation (IEInf=0, Eps=  24.8520, EpsInf=   1.8526)
 Orbital symmetries:
       Occupied  (A) (A) (A) (A) (A) (A) (A) (A) (A) (A) (A) (A)
                 (A) (A) (A) (A) (A) (A) (A) (A) (A) (A) (A) (A)
                 (A) (A) (A) (A) (A) (A) (A) (A) (A) (A) (A) (A)
                 (A) (A) (A) (A) (A) (A) (A) (A) (A) (A) (A) (A)
                 (A) (A) (A) (A) (A) (A) (A) (A) (A) (A) (A) (A)
                 (A) (A) (A) (A) (A) (A) (A) (A) (A) (A) (A) (A)
                 (A)
       Virtual   (A) (A) (A) (A) (A) (A) (A) (A) (A) (A) (A) (A)
                 (A) (A) (A) (A) (A) (A) (A) (A) (A) (A) (A) (A)
                 (A) (A) (A) (A) (A) (A) (A) (A) (A) (A) (A) (A)
                 (A) (A) (A) (A) (A) (A) (A) (A) (A) (A) (A) (A)
                 (A) (A) (A) (A) (A) (A) (A) (A) (A) (A) (A) (A)
                 (A) (A) (A) (A) (A) (A) (A) (A) (A) (A) (A) (A)
                 (A) (A) (A) (A) (A) (A) (A) (A) (A) (A) (A) (A)
                 (A) (A) (A) (A) (A) (A) (A) (A) (A) (A) (A) (A)
                 (A) (A) (A) (A) (A) (A) (A) (A) (A) (A) (A) (A)
                 (A) (A) (A) (A) (A) (A) (A) (A) (A) (A) (A) (A)
                 (A) (A) (A) (A) (A) (A) (A) (A) (A) (A) (A) (A)
                 (A) (A) (A) (A) (A) (A) (A) (A) (A) (A) (A) (A)
                 (A) (A) (A) (A) (A) (A) (A) (A) (A) (A) (A) (A)
                 (A) (A) (A) (A) (A) (A) (A) (A) (A) (A) (A) (A)
                 (A) (A) (A) (A) (A) (A) (A) (A) (A) (A) (A) (A)
                 (A) (A) (A) (A) (A) (A) (A) (A) (A) (A) (A) (A)
                 (A) (A) (A) (A) (A) (A) (A) (A) (A) (A) (A) (A)
                 (A) (A) (A) (A) (A) (A) (A) (A) (A) (A) (A) (A)
                 (A) (A) (A) (A) (A) (A) (A) (A) (A) (A) (A) (A)
                 (A) (A) (A) (A) (A) (A) (A) (A) (A) (A) (A) (A)
                 (A) (A) (A) (A) (A) (A) (A) (A) (A) (A) (A) (A)
                 (A) (A) (A) (A) (A) (A) (A) (A) (A) (A) (A) (A)
                 (A) (A) (A) (A) (A) (A) (A) (A) (A) (A) (A) (A)
                 (A) (A) (A) (A) (A)
    12 initial guesses have been made.
 Convergence on wavefunction:    0.000001000000000
 Iteration     1 Dimension    12 NMult     0 NNew     12
 CISAX will form    12 AO SS matrices at one time.
 Iteration     2 Dimension    18 NMult    12 NNew      6
 Iteration     3 Dimension    24 NMult    18 NNew      6
 Iteration     4 Dimension    30 NMult    24 NNew      6
 Iteration     5 Dimension    36 NMult    30 NNew      6
 Iteration     6 Dimension    42 NMult    36 NNew      6
 Iteration     7 Dimension    48 NMult    42 NNew      6
 Iteration     8 Dimension    54 NMult    48 NNew      6
 Iteration     9 Dimension    60 NMult    54 NNew      6
 Iteration    10 Dimension    64 NMult    60 NNew      4
 Iteration    11 Dimension    66 NMult    64 NNew      2
 PCM Corrected Linear-Response:
 The state of interest is root number   1
 Excitation energy =    2.1819 eV, Total energy =  -966.653764992    
 Recompute the excitation energies using the linear response reaction field.
 Convergence on wavefunction:    0.000001000000000
 Iteration     1 Dimension     3 NMult     0 NNew      3
 Iteration     2 Dimension     9 NMult     3 NNew      6
 Iteration     3 Dimension    15 NMult     9 NNew      6
 Iteration     4 Dimension    21 NMult    15 NNew      6
 Iteration     5 Dimension    27 NMult    21 NNew      6
 Iteration     6 Dimension    33 NMult    27 NNew      6
 Iteration     7 Dimension    39 NMult    33 NNew      6
 Iteration     8 Dimension    45 NMult    39 NNew      6
 Iteration     9 Dimension    51 NMult    45 NNew      6
 Iteration    10 Dimension    55 NMult    51 NNew      4
 Iteration    11 Dimension    57 NMult    55 NNew      2
 Iteration    12 Dimension    59 NMult    57 NNew      2
 ***********************************************************************
 Excited states from <AA,BB:AA,BB> singles matrix:
 ***********************************************************************
 
 Ground to excited state transition densities written to RWF  633
 Ground to excited state transition electric dipole moments (Au):
       state          X           Y           Z        Dip. S.      Osc.
         1        -0.0197      0.0344     -0.0002      0.0016      0.0001
         2        -0.0001      3.5253      0.0030     12.4275      0.8051
         3        -0.0001      0.8927      0.0007      0.7970      0.0722
 Ground to excited state transition velocity dipole moments (Au):
       state          X           Y           Z        Dip. S.      Osc.
         1         0.0016     -0.0027      0.0000      0.0000      0.0001
         2         0.0000     -0.3432     -0.0003      0.1178      0.8079
         3         0.0000     -0.1254     -0.0001      0.0157      0.0772
 Ground to excited state transition magnetic dipole moments (Au):
       state          X           Y           Z
         1         0.0974     -0.0000     -0.0006
         2        -0.0132      0.0002     -0.4352
         3         0.0004     -0.0012      1.4865
 Ground to excited state transition velocity quadrupole moments (Au):
       state          XX          YY          ZZ          XY          XZ          YZ
         1         0.0082     -0.0039      0.0004      0.0084      0.0000     -0.0027
         2        -0.0003      0.0000      0.0001      1.0191      0.0009      0.0359
         3         0.0000     -0.0001      0.0000     -0.1794     -0.0003      0.0082
 <0|del|b> * <b|rxdel|0> + <0|del|b> * <b|delr+rdel|0>
 Rotatory Strengths (R) in cgs (10**-40 erg-esu-cm/Gauss)
       state          XX          YY          ZZ    R(velocity)    E-M Angle
         1         0.0016      0.6481      0.6860      0.4452       60.41
         2         0.2436      1.5690     -1.3266      0.1620       90.00
         3         0.0029     -0.4095      0.4887      0.0274       90.00
 1/2[<0|r|b>*<b|rxdel|0> + (<0|rxdel|b>*<b|r|0>)*]
 Rotatory Strengths (R) in cgs (10**-40 erg-esu-cm/Gauss)
       state          XX          YY          ZZ     R(length)
         1         1.3587      0.0010     -0.0001      0.4532
         2        -0.0007     -0.4512      0.9349      0.1610
         3         0.0000      0.7865     -0.7055      0.0270
  1/2[<0|del|b>*<b|r|0> + (<0|r|b>*<b|del|0>)*] (Au)
       state          X           Y           Z        Dip. S.   Osc.(frdel)
         1        -0.0000     -0.0001     -0.0000      0.0001      0.0001
         2        -0.0000     -1.2097     -0.0000      1.2097      0.8065
         3        -0.0000     -0.1119     -0.0000      0.1119      0.0746

 Excitation energies and oscillator strengths:
 
 Excited State   1:      Singlet-A      2.1815 eV  568.34 nm  f=0.0001  <S**2>=0.000
      67 -> 74        -0.10917
      73 -> 74         0.69597
 This state for optimization and/or second-order correction.
 Total Energy, E(TD-HF/TD-DFT) =  -966.653779777    
 Copying the excited state density for this state as the 1-particle RhoCI density.
 
 Excited State   2:      Singlet-A      2.6441 eV  468.90 nm  f=0.8051  <S**2>=0.000
      72 -> 74         0.70110
 
 Excited State   3:      Singlet-A      3.6958 eV  335.47 nm  f=0.0722  <S**2>=0.000
      70 -> 74        -0.31824
      71 -> 74         0.62646
 SavETr:  write IOETrn=   770 NScale= 10 NData=  16 NLR=1 NState=    3 LETran=      64.
 NEqPCM:  Using equilibrium solvation (IEInf=0, Eps=  24.8520, EpsInf=   1.8526)
          Differentiating once with respect to electric field.
                with respect to dipole field.
          Electric field/nuclear overlap derivatives assumed to be zero.
          There are     1 degrees of freedom in the 1st order CPHF.  IDoFFX=0 NUNeed=     1.
 LinEq1:  Iter=  0 NonCon=     1 RMS=4.94D-03 Max=1.65D-01 NDo=     1
 AX will form     1 AO Fock derivatives at one time.
 LinEq1:  Iter=  1 NonCon=     1 RMS=1.79D-03 Max=1.40D-01 NDo=     1
 LinEq1:  Iter=  2 NonCon=     1 RMS=1.31D-03 Max=1.11D-01 NDo=     1
 LinEq1:  Iter=  3 NonCon=     1 RMS=4.64D-04 Max=2.82D-02 NDo=     1
 LinEq1:  Iter=  4 NonCon=     1 RMS=2.23D-04 Max=1.23D-02 NDo=     1
 LinEq1:  Iter=  5 NonCon=     1 RMS=9.15D-05 Max=3.18D-03 NDo=     1
 LinEq1:  Iter=  6 NonCon=     1 RMS=3.36D-05 Max=1.33D-03 NDo=     1
 LinEq1:  Iter=  7 NonCon=     1 RMS=1.82D-05 Max=8.55D-04 NDo=     1
 LinEq1:  Iter=  8 NonCon=     1 RMS=6.14D-06 Max=2.22D-04 NDo=     1
 LinEq1:  Iter=  9 NonCon=     1 RMS=4.05D-06 Max=2.07D-04 NDo=     1
 LinEq1:  Iter= 10 NonCon=     1 RMS=1.56D-06 Max=4.48D-05 NDo=     1
 LinEq1:  Iter= 11 NonCon=     1 RMS=4.50D-07 Max=1.75D-05 NDo=     1
 LinEq1:  Iter= 12 NonCon=     1 RMS=2.36D-07 Max=1.01D-05 NDo=     1
 LinEq1:  Iter= 13 NonCon=     1 RMS=9.06D-08 Max=3.75D-06 NDo=     1
 LinEq1:  Iter= 14 NonCon=     1 RMS=4.24D-08 Max=1.98D-06 NDo=     1
 LinEq1:  Iter= 15 NonCon=     1 RMS=1.85D-08 Max=1.01D-06 NDo=     1
 LinEq1:  Iter= 16 NonCon=     1 RMS=8.32D-09 Max=4.93D-07 NDo=     1
 LinEq1:  Iter= 17 NonCon=     1 RMS=2.99D-09 Max=1.98D-07 NDo=     1
 LinEq1:  Iter= 18 NonCon=     1 RMS=9.81D-10 Max=3.81D-08 NDo=     1
 LinEq1:  Iter= 19 NonCon=     1 RMS=4.77D-10 Max=1.34D-08 NDo=     1
 LinEq1:  Iter= 20 NonCon=     1 RMS=1.71D-10 Max=5.30D-09 NDo=     1
 LinEq1:  Iter= 21 NonCon=     1 RMS=5.15D-11 Max=1.74D-09 NDo=     1
 LinEq1:  Iter= 22 NonCon=     0 RMS=2.79D-11 Max=7.97D-10 NDo=     1
 Linear equations converged to 1.000D-10 1.000D-09 after    22 iterations.
 PCM Corrected Linear-Response - Equilibrium solvation:
 Corrected transition energy               =    1.1246          eV
 Total energy after correction             = -966.692620901     a.u.
 NEqPCM:  Using non-equilibrium solvation (IEInf=1, Eps=  24.8520, EpsInf=   1.8526)
 Inv3:  Mode=1 IEnd=    20342448.
 Iteration    1 A*A^-1 deviation from unit magnitude is 7.33D-15 for   2600.
 Iteration    1 A*A^-1 deviation from orthogonality  is 2.25D-15 for   1595   1135.
 Iteration    1 A^-1*A deviation from unit magnitude is 7.77D-15 for   2600.
 Iteration    1 A^-1*A deviation from orthogonality  is 2.73D-15 for   2303    883.
 End of Minotr F.D. properties file   721 does not exist.
 End of Minotr F.D. properties file   722 does not exist.
 End of Minotr F.D. properties file   788 does not exist.

 **********************************************************************

            Population analysis using the CI Density.

 **********************************************************************

 Orbital symmetries:
       Occupied  (A) (A) (A) (A) (A) (A) (A) (A) (A) (A) (A) (A)
                 (A) (A) (A) (A) (A) (A) (A) (A) (A) (A) (A) (A)
                 (A) (A) (A) (A) (A) (A) (A) (A) (A) (A) (A) (A)
                 (A) (A) (A) (A) (A) (A) (A) (A) (A) (A) (A) (A)
                 (A) (A) (A) (A) (A) (A) (A) (A) (A) (A) (A) (A)
                 (A) (A) (A) (A) (A) (A) (A) (A) (A) (A) (A) (A)
                 (A)
       Virtual   (A) (A) (A) (A) (A) (A) (A) (A) (A) (A) (A) (A)
                 (A) (A) (A) (A) (A) (A) (A) (A) (A) (A) (A) (A)
                 (A) (A) (A) (A) (A) (A) (A) (A) (A) (A) (A) (A)
                 (A) (A) (A) (A) (A) (A) (A) (A) (A) (A) (A) (A)
                 (A) (A) (A) (A) (A) (A) (A) (A) (A) (A) (A) (A)
                 (A) (A) (A) (A) (A) (A) (A) (A) (A) (A) (A) (A)
                 (A) (A) (A) (A) (A) (A) (A) (A) (A) (A) (A) (A)
                 (A) (A) (A) (A) (A) (A) (A) (A) (A) (A) (A) (A)
                 (A) (A) (A) (A) (A) (A) (A) (A) (A) (A) (A) (A)
                 (A) (A) (A) (A) (A) (A) (A) (A) (A) (A) (A) (A)
                 (A) (A) (A) (A) (A) (A) (A) (A) (A) (A) (A) (A)
                 (A) (A) (A) (A) (A) (A) (A) (A) (A) (A) (A) (A)
                 (A) (A) (A) (A) (A) (A) (A) (A) (A) (A) (A) (A)
                 (A) (A) (A) (A) (A) (A) (A) (A) (A) (A) (A) (A)
                 (A) (A) (A) (A) (A) (A) (A) (A) (A) (A) (A) (A)
                 (A) (A) (A) (A) (A) (A) (A) (A) (A) (A) (A) (A)
                 (A) (A) (A) (A) (A) (A) (A) (A) (A) (A) (A) (A)
                 (A) (A) (A) (A) (A) (A) (A) (A) (A) (A) (A) (A)
                 (A) (A) (A) (A) (A) (A) (A) (A) (A) (A) (A) (A)
                 (A) (A) (A) (A) (A) (A) (A) (A) (A) (A) (A) (A)
                 (A) (A) (A) (A) (A) (A) (A) (A) (A) (A) (A) (A)
                 (A) (A) (A) (A) (A) (A) (A) (A) (A) (A) (A) (A)
                 (A) (A) (A) (A) (A) (A) (A) (A) (A) (A) (A) (A)
                 (A) (A) (A) (A) (A)
 The electronic state is 1-A.
 Alpha  occ. eigenvalues --  -25.19788 -25.19657 -14.79530 -14.79529 -14.76421
 Alpha  occ. eigenvalues --  -10.62736 -10.60563 -10.60561 -10.60525 -10.60057
 Alpha  occ. eigenvalues --  -10.60050 -10.57385 -10.57382 -10.56480 -10.56446
 Alpha  occ. eigenvalues --  -10.56405 -10.55812 -10.55812 -10.54981 -10.54976
 Alpha  occ. eigenvalues --   -7.13837  -1.28270  -1.24735  -1.09460  -1.07429
 Alpha  occ. eigenvalues --   -1.02524  -0.94900  -0.90172  -0.88246  -0.86485
 Alpha  occ. eigenvalues --   -0.83700  -0.81886  -0.80840  -0.74474  -0.69223
 Alpha  occ. eigenvalues --   -0.68905  -0.68662  -0.65684  -0.65416  -0.65342
 Alpha  occ. eigenvalues --   -0.61780  -0.60176  -0.59148  -0.58870  -0.57600
 Alpha  occ. eigenvalues --   -0.56888  -0.53827  -0.52600  -0.51558  -0.51080
 Alpha  occ. eigenvalues --   -0.50729  -0.50098  -0.49262  -0.49073  -0.48783
 Alpha  occ. eigenvalues --   -0.47927  -0.46733  -0.46696  -0.46214  -0.45989
 Alpha  occ. eigenvalues --   -0.45661  -0.44962  -0.44947  -0.42668  -0.42260
 Alpha  occ. eigenvalues --   -0.39928  -0.38170  -0.35276  -0.32484  -0.31934
 Alpha  occ. eigenvalues --   -0.31375  -0.27100  -0.24445
 Alpha virt. eigenvalues --   -0.09003   0.02571   0.03751   0.06220   0.07780
 Alpha virt. eigenvalues --    0.10262   0.11229   0.12584   0.13073   0.13672
 Alpha virt. eigenvalues --    0.13879   0.14310   0.15329   0.16591   0.16667
 Alpha virt. eigenvalues --    0.17278   0.17920   0.18057   0.19543   0.19750
 Alpha virt. eigenvalues --    0.21640   0.21847   0.22751   0.23612   0.24211
 Alpha virt. eigenvalues --    0.25875   0.27066   0.27752   0.29778   0.30600
 Alpha virt. eigenvalues --    0.31081   0.32612   0.32953   0.33934   0.35527
 Alpha virt. eigenvalues --    0.36637   0.37797   0.38038   0.39178   0.40155
 Alpha virt. eigenvalues --    0.42365   0.42659   0.43838   0.44091   0.44574
 Alpha virt. eigenvalues --    0.45634   0.45827   0.46316   0.46356   0.47119
 Alpha virt. eigenvalues --    0.47166   0.48370   0.48772   0.50375   0.50960
 Alpha virt. eigenvalues --    0.51420   0.51512   0.53988   0.54858   0.54918
 Alpha virt. eigenvalues --    0.55076   0.55677   0.56029   0.57317   0.59490
 Alpha virt. eigenvalues --    0.59526   0.59821   0.61048   0.61455   0.62152
 Alpha virt. eigenvalues --    0.63355   0.64685   0.65363   0.68823   0.69403
 Alpha virt. eigenvalues --    0.69793   0.70186   0.70284   0.70781   0.70797
 Alpha virt. eigenvalues --    0.71555   0.71802   0.73391   0.73461   0.74823
 Alpha virt. eigenvalues --    0.74919   0.75417   0.76211   0.76447   0.76675
 Alpha virt. eigenvalues --    0.77377   0.77832   0.78842   0.79384   0.80130
 Alpha virt. eigenvalues --    0.81876   0.82978   0.83677   0.86353   0.86762
 Alpha virt. eigenvalues --    0.86903   0.87152   0.88550   0.89562   0.92183
 Alpha virt. eigenvalues --    0.93142   0.94073   0.95258   0.97676   0.99702
 Alpha virt. eigenvalues --    1.00747   1.03720   1.04819   1.06641   1.08905
 Alpha virt. eigenvalues --    1.10247   1.11365   1.11696   1.15059   1.16242
 Alpha virt. eigenvalues --    1.18827   1.18998   1.22736   1.23946   1.24542
 Alpha virt. eigenvalues --    1.25255   1.28163   1.28743   1.29493   1.30594
 Alpha virt. eigenvalues --    1.30682   1.31315   1.31615   1.32456   1.32820
 Alpha virt. eigenvalues --    1.33417   1.34388   1.35263   1.36643   1.37399
 Alpha virt. eigenvalues --    1.37885   1.39431   1.39452   1.42096   1.44129
 Alpha virt. eigenvalues --    1.44979   1.45693   1.48823   1.50775   1.54027
 Alpha virt. eigenvalues --    1.54082   1.58957   1.60207   1.60840   1.66037
 Alpha virt. eigenvalues --    1.66547   1.67475   1.68672   1.68704   1.70713
 Alpha virt. eigenvalues --    1.70775   1.72539   1.73186   1.74647   1.74735
 Alpha virt. eigenvalues --    1.75848   1.76287   1.76511   1.78034   1.78230
 Alpha virt. eigenvalues --    1.79284   1.79829   1.80028   1.81021   1.81465
 Alpha virt. eigenvalues --    1.83026   1.83193   1.85476   1.86086   1.87406
 Alpha virt. eigenvalues --    1.88805   1.89323   1.89768   1.89916   1.91447
 Alpha virt. eigenvalues --    1.93154   1.95198   1.95387   1.95880   1.96620
 Alpha virt. eigenvalues --    1.96906   1.98361   1.99113   1.99373   2.00754
 Alpha virt. eigenvalues --    2.01259   2.03722   2.05835   2.06146   2.06633
 Alpha virt. eigenvalues --    2.09385   2.12616   2.12758   2.15049   2.16138
 Alpha virt. eigenvalues --    2.17147   2.17356   2.18330   2.19510   2.20826
 Alpha virt. eigenvalues --    2.22366   2.23695   2.23856   2.25124   2.25829
 Alpha virt. eigenvalues --    2.27629   2.30142   2.31512   2.32375   2.32657
 Alpha virt. eigenvalues --    2.34080   2.35675   2.37593   2.38253   2.40555
 Alpha virt. eigenvalues --    2.41067   2.42875   2.44853   2.49278   2.55388
 Alpha virt. eigenvalues --    2.55631   2.55729   2.58705   2.61206   2.62910
 Alpha virt. eigenvalues --    2.65545   2.66942   2.67605   2.67799   2.69422
 Alpha virt. eigenvalues --    2.70488   2.71429   2.71561   2.71948   2.73698
 Alpha virt. eigenvalues --    2.73892   2.73985   2.75201   2.77899   2.80502
 Alpha virt. eigenvalues --    2.84295   2.86544   2.88310   2.90470   2.91841
 Alpha virt. eigenvalues --    2.92788   2.97921   3.00752   3.01691   3.08135
 Alpha virt. eigenvalues --    3.11918   3.18653   3.19211   3.19304   3.19537
 Alpha virt. eigenvalues --    3.21260   3.23117   3.23758   3.24543   3.26476
 Alpha virt. eigenvalues --    3.31709   3.42387   3.45572   3.47043   3.51247
 Alpha virt. eigenvalues --    3.51657   3.58000   3.60765   3.67106   3.79526
 Alpha virt. eigenvalues --    3.80913
          Condensed to atoms (all electrons):
               1          2          3          4          5          6
     1  C    5.110062   0.011850   0.237893   0.432161   0.001319  -0.152334
     2  C    0.011850   5.109993   0.237945   0.012416  -0.000374  -0.000097
     3  C    0.237893   0.237945   5.759596  -0.139324   0.022704   0.014225
     4  C    0.432161   0.012416  -0.139324   5.235478   0.317590  -0.023027
     5  C    0.001319  -0.000374   0.022704   0.317590   5.088055   0.411988
     6  C   -0.152334  -0.000097   0.014225  -0.023027   0.411988   4.941925
     7  H    0.012056   0.000009  -0.000524  -0.062224   0.453799  -0.058939
     8  C   -0.000096  -0.152340   0.014222   0.000019  -0.000002   0.000040
     9  C    0.012419   0.432164  -0.139329  -0.000089   0.000004   0.000019
    10  C   -0.000374   0.001327   0.022706   0.000004  -0.000000  -0.000002
    11  H    0.000009   0.012056  -0.000524   0.000000   0.000000   0.000000
    12  N    0.467182  -0.007115  -0.097011  -0.097665  -0.067876   0.396946
    13  N   -0.007118   0.467175  -0.097003  -0.000154  -0.000034   0.000158
    14  B   -0.045737  -0.045735  -0.018334   0.004073  -0.001605  -0.011576
    15  F   -0.003361  -0.003360   0.001646  -0.000031  -0.000124  -0.001167
    16  F   -0.003445  -0.003446   0.001754  -0.000087   0.000165   0.000138
    17  C   -0.076813  -0.076786   0.417146  -0.012538  -0.000459   0.000070
    18  C   -0.005386  -0.005300  -0.092622   0.000271  -0.000004  -0.000028
    19  C   -0.005299  -0.005376  -0.093418   0.000329  -0.000004  -0.000028
    20  C    0.000752   0.000737   0.010697  -0.000220  -0.000007   0.000000
    21  H   -0.001048  -0.001062  -0.009708   0.000167   0.000011  -0.000002
    22  C    0.000750   0.000762   0.010853  -0.000191  -0.000007   0.000000
    23  H   -0.001041  -0.001021  -0.009727   0.000095   0.000011  -0.000002
    24  C   -0.000031  -0.000031   0.000761  -0.000013   0.000002  -0.000000
    25  H   -0.000004  -0.000004  -0.000189   0.000001  -0.000000   0.000000
    26  H   -0.000004  -0.000005  -0.000193   0.000001  -0.000000   0.000000
    27  H   -0.000500  -0.035651  -0.023962   0.000001   0.000000  -0.000000
    28  H    0.000046   0.003681  -0.000566  -0.000000   0.000000   0.000006
    29  H   -0.035656  -0.000500  -0.023957   0.447581  -0.067310   0.012200
    30  H    0.003681   0.000046  -0.000566   0.011052  -0.058966   0.431204
    31  N   -0.000000  -0.000000   0.000016   0.000000   0.000000  -0.000000
    32  H   -0.000000  -0.000000  -0.000000   0.000000   0.000000   0.000000
    33  H   -0.000000  -0.000000  -0.000000   0.000000   0.000000   0.000000
               7          8          9         10         11         12
     1  C    0.012056  -0.000096   0.012419  -0.000374   0.000009   0.467182
     2  C    0.000009  -0.152340   0.432164   0.001327   0.012056  -0.007115
     3  C   -0.000524   0.014222  -0.139329   0.022706  -0.000524  -0.097011
     4  C   -0.062224   0.000019  -0.000089   0.000004   0.000000  -0.097665
     5  C    0.453799  -0.000002   0.000004  -0.000000   0.000000  -0.067876
     6  C   -0.058939   0.000040   0.000019  -0.000002   0.000000   0.396946
     7  H    0.625997   0.000000   0.000000   0.000000  -0.000000   0.005112
     8  C    0.000000   4.941922  -0.023015   0.411987  -0.058939   0.000159
     9  C    0.000000  -0.023015   5.235490   0.317566  -0.062225  -0.000153
    10  C    0.000000   0.411987   0.317566   5.088070   0.453800  -0.000034
    11  H   -0.000000  -0.058939  -0.062225   0.453800   0.626000   0.000002
    12  N    0.005112   0.000159  -0.000153  -0.000034   0.000002   6.476625
    13  N    0.000002   0.396939  -0.097671  -0.067875   0.005112  -0.055299
    14  B    0.000150  -0.011567   0.004073  -0.001609   0.000150   0.307396
    15  F    0.000001  -0.001158  -0.000031  -0.000124   0.000001  -0.037942
    16  F    0.000001   0.000128  -0.000087   0.000165   0.000001  -0.036487
    17  C   -0.000017   0.000070  -0.012536  -0.000460  -0.000017   0.004855
    18  C    0.000001  -0.000028   0.000279  -0.000004   0.000001  -0.000013
    19  C    0.000001  -0.000029   0.000321  -0.000003   0.000001  -0.000006
    20  C    0.000000   0.000000  -0.000214  -0.000007   0.000000   0.000003
    21  H   -0.000000  -0.000002   0.000154   0.000011  -0.000000  -0.000070
    22  C    0.000000   0.000000  -0.000198  -0.000007   0.000000   0.000003
    23  H   -0.000000  -0.000002   0.000106   0.000011  -0.000000  -0.000070
    24  C    0.000000  -0.000000  -0.000014   0.000002   0.000000  -0.000000
    25  H   -0.000000   0.000000   0.000001  -0.000000  -0.000000  -0.000000
    26  H   -0.000000   0.000000   0.000001  -0.000000  -0.000000  -0.000000
    27  H   -0.000000   0.012200   0.447576  -0.067315  -0.004730  -0.000015
    28  H   -0.000000   0.431205   0.011052  -0.058968  -0.004057   0.000152
    29  H   -0.004730  -0.000000   0.000001   0.000000  -0.000000   0.005953
    30  H   -0.004057   0.000006  -0.000000   0.000000  -0.000000  -0.036330
    31  N   -0.000000  -0.000000   0.000000   0.000000  -0.000000   0.000000
    32  H   -0.000000   0.000000   0.000000   0.000000  -0.000000  -0.000000
    33  H   -0.000000   0.000000   0.000000   0.000000  -0.000000  -0.000000
              13         14         15         16         17         18
     1  C   -0.007118  -0.045737  -0.003361  -0.003445  -0.076813  -0.005386
     2  C    0.467175  -0.045735  -0.003360  -0.003446  -0.076786  -0.005300
     3  C   -0.097003  -0.018334   0.001646   0.001754   0.417146  -0.092622
     4  C   -0.000154   0.004073  -0.000031  -0.000087  -0.012538   0.000271
     5  C   -0.000034  -0.001605  -0.000124   0.000165  -0.000459  -0.000004
     6  C    0.000158  -0.011576  -0.001167   0.000138   0.000070  -0.000028
     7  H    0.000002   0.000150   0.000001   0.000001  -0.000017   0.000001
     8  C    0.396939  -0.011567  -0.001158   0.000128   0.000070  -0.000028
     9  C   -0.097671   0.004073  -0.000031  -0.000087  -0.012536   0.000279
    10  C   -0.067875  -0.001609  -0.000124   0.000165  -0.000460  -0.000004
    11  H    0.005112   0.000150   0.000001   0.000001  -0.000017   0.000001
    12  N   -0.055299   0.307396  -0.037942  -0.036487   0.004855  -0.000013
    13  N    6.476644   0.307395  -0.037951  -0.036476   0.004856  -0.000014
    14  B    0.307395   3.392344   0.448049   0.437862   0.002465   0.000074
    15  F   -0.037951   0.448049   8.945921  -0.028751   0.000005   0.000000
    16  F   -0.036476   0.437862  -0.028751   8.949803   0.000005  -0.000000
    17  C    0.004856   0.002465   0.000005   0.000005   5.541544   0.163691
    18  C   -0.000014   0.000074   0.000000  -0.000000   0.163691   5.090541
    19  C   -0.000005  -0.000005  -0.000000   0.000000   0.167194   0.042217
    20  C    0.000003  -0.000001  -0.000000   0.000000   0.117987   0.288902
    21  H   -0.000068  -0.000008  -0.000000   0.000000  -0.064201   0.465867
    22  C    0.000003   0.000000   0.000000  -0.000000   0.117868  -0.108806
    23  H   -0.000071   0.000003   0.000000  -0.000000  -0.063741   0.012083
    24  C   -0.000000   0.000000   0.000000   0.000000  -0.191544   0.149545
    25  H   -0.000000  -0.000000   0.000000  -0.000000   0.013978  -0.052872
    26  H   -0.000000  -0.000000  -0.000000   0.000000   0.013972  -0.002858
    27  H    0.005953   0.000299   0.000001   0.000001   0.008379  -0.000811
    28  H   -0.036329   0.002023   0.000066   0.000998   0.000005  -0.000000
    29  H   -0.000015   0.000299   0.000001   0.000001   0.008372  -0.000813
    30  H    0.000152   0.002021   0.000062   0.001004   0.000005   0.000000
    31  N    0.000000   0.000000   0.000000   0.000000  -0.000396   0.006026
    32  H   -0.000000  -0.000000  -0.000000   0.000000   0.000002  -0.000375
    33  H   -0.000000  -0.000000   0.000000  -0.000000   0.000002   0.000552
              19         20         21         22         23         24
     1  C   -0.005299   0.000752  -0.001048   0.000750  -0.001041  -0.000031
     2  C   -0.005376   0.000737  -0.001062   0.000762  -0.001021  -0.000031
     3  C   -0.093418   0.010697  -0.009708   0.010853  -0.009727   0.000761
     4  C    0.000329  -0.000220   0.000167  -0.000191   0.000095  -0.000013
     5  C   -0.000004  -0.000007   0.000011  -0.000007   0.000011   0.000002
     6  C   -0.000028   0.000000  -0.000002   0.000000  -0.000002  -0.000000
     7  H    0.000001   0.000000  -0.000000   0.000000  -0.000000   0.000000
     8  C   -0.000029   0.000000  -0.000002   0.000000  -0.000002  -0.000000
     9  C    0.000321  -0.000214   0.000154  -0.000198   0.000106  -0.000014
    10  C   -0.000003  -0.000007   0.000011  -0.000007   0.000011   0.000002
    11  H    0.000001   0.000000  -0.000000   0.000000  -0.000000   0.000000
    12  N   -0.000006   0.000003  -0.000070   0.000003  -0.000070  -0.000000
    13  N   -0.000005   0.000003  -0.000068   0.000003  -0.000071  -0.000000
    14  B   -0.000005  -0.000001  -0.000008   0.000000   0.000003   0.000000
    15  F   -0.000000  -0.000000  -0.000000   0.000000   0.000000   0.000000
    16  F    0.000000   0.000000   0.000000  -0.000000  -0.000000   0.000000
    17  C    0.167194   0.117987  -0.064201   0.117868  -0.063741  -0.191544
    18  C    0.042217   0.288902   0.465867  -0.108806   0.012083   0.149545
    19  C    5.088944  -0.108643   0.012013   0.287380   0.465621   0.149699
    20  C   -0.108643   5.264067  -0.061501   0.015881  -0.002202   0.083303
    21  H    0.012013  -0.061501   0.585442  -0.002188  -0.000088   0.013809
    22  C    0.287380   0.015881  -0.002188   5.265804  -0.061685   0.083495
    23  H    0.465621  -0.002202  -0.000088  -0.061685   0.585479   0.013810
    24  C    0.149699   0.083303   0.013809   0.083495   0.013810   5.256332
    25  H   -0.002859   0.462105  -0.010394   0.012199   0.000012  -0.069971
    26  H   -0.052902   0.012203   0.000012   0.462098  -0.010381  -0.069918
    27  H   -0.000823   0.000385  -0.000052   0.000369  -0.000054  -0.000056
    28  H    0.000000   0.000000  -0.000000   0.000000  -0.000000  -0.000000
    29  H   -0.000818   0.000392  -0.000053   0.000362  -0.000054  -0.000056
    30  H    0.000000   0.000000  -0.000000   0.000000  -0.000000  -0.000000
    31  N    0.006041  -0.095079  -0.000083  -0.095172  -0.000083   0.553602
    32  H    0.000558   0.009362   0.000007  -0.021444  -0.000018   0.000509
    33  H   -0.000377  -0.021363  -0.000017   0.009374   0.000007   0.000411
              25         26         27         28         29         30
     1  C   -0.000004  -0.000004  -0.000500   0.000046  -0.035656   0.003681
     2  C   -0.000004  -0.000005  -0.035651   0.003681  -0.000500   0.000046
     3  C   -0.000189  -0.000193  -0.023962  -0.000566  -0.023957  -0.000566
     4  C    0.000001   0.000001   0.000001  -0.000000   0.447581   0.011052
     5  C   -0.000000  -0.000000   0.000000   0.000000  -0.067310  -0.058966
     6  C    0.000000   0.000000  -0.000000   0.000006   0.012200   0.431204
     7  H   -0.000000  -0.000000  -0.000000  -0.000000  -0.004730  -0.004057
     8  C    0.000000   0.000000   0.012200   0.431205  -0.000000   0.000006
     9  C    0.000001   0.000001   0.447576   0.011052   0.000001  -0.000000
    10  C   -0.000000  -0.000000  -0.067315  -0.058968   0.000000   0.000000
    11  H   -0.000000  -0.000000  -0.004730  -0.004057  -0.000000  -0.000000
    12  N   -0.000000  -0.000000  -0.000015   0.000152   0.005953  -0.036330
    13  N   -0.000000  -0.000000   0.005953  -0.036329  -0.000015   0.000152
    14  B   -0.000000  -0.000000   0.000299   0.002023   0.000299   0.002021
    15  F    0.000000  -0.000000   0.000001   0.000066   0.000001   0.000062
    16  F   -0.000000   0.000000   0.000001   0.000998   0.000001   0.001004
    17  C    0.013978   0.013972   0.008379   0.000005   0.008372   0.000005
    18  C   -0.052872  -0.002858  -0.000811  -0.000000  -0.000813   0.000000
    19  C   -0.002859  -0.052902  -0.000823   0.000000  -0.000818   0.000000
    20  C    0.462105   0.012203   0.000385   0.000000   0.000392   0.000000
    21  H   -0.010394   0.000012  -0.000052  -0.000000  -0.000053  -0.000000
    22  C    0.012199   0.462098   0.000369   0.000000   0.000362   0.000000
    23  H    0.000012  -0.010381  -0.000054  -0.000000  -0.000054  -0.000000
    24  C   -0.069971  -0.069918  -0.000056  -0.000000  -0.000056  -0.000000
    25  H    0.574492  -0.000068  -0.000001  -0.000000  -0.000001  -0.000000
    26  H   -0.000068   0.574486  -0.000001  -0.000000  -0.000001  -0.000000
    27  H   -0.000001  -0.000001   0.635153  -0.000148  -0.000001  -0.000000
    28  H   -0.000000  -0.000000  -0.000148   0.589444  -0.000000   0.000000
    29  H   -0.000001  -0.000001  -0.000001  -0.000000   0.635149  -0.000148
    30  H   -0.000000  -0.000000  -0.000000   0.000000  -0.000148   0.589443
    31  N   -0.009060  -0.009100  -0.000002   0.000000  -0.000002   0.000000
    32  H   -0.000193   0.003859  -0.000000  -0.000000  -0.000000  -0.000000
    33  H    0.003847  -0.000192  -0.000000  -0.000000  -0.000000  -0.000000
              31         32         33
     1  C   -0.000000  -0.000000  -0.000000
     2  C   -0.000000  -0.000000  -0.000000
     3  C    0.000016  -0.000000  -0.000000
     4  C    0.000000   0.000000   0.000000
     5  C    0.000000   0.000000   0.000000
     6  C   -0.000000   0.000000   0.000000
     7  H   -0.000000  -0.000000  -0.000000
     8  C   -0.000000   0.000000   0.000000
     9  C    0.000000   0.000000   0.000000
    10  C    0.000000   0.000000   0.000000
    11  H   -0.000000  -0.000000  -0.000000
    12  N    0.000000  -0.000000  -0.000000
    13  N    0.000000  -0.000000  -0.000000
    14  B    0.000000  -0.000000  -0.000000
    15  F    0.000000  -0.000000   0.000000
    16  F    0.000000   0.000000  -0.000000
    17  C   -0.000396   0.000002   0.000002
    18  C    0.006026  -0.000375   0.000552
    19  C    0.006041   0.000558  -0.000377
    20  C   -0.095079   0.009362  -0.021363
    21  H   -0.000083   0.000007  -0.000017
    22  C   -0.095172  -0.021444   0.009374
    23  H   -0.000083  -0.000018   0.000007
    24  C    0.553602   0.000509   0.000411
    25  H   -0.009060  -0.000193   0.003847
    26  H   -0.009100   0.003859  -0.000192
    27  H   -0.000002  -0.000000  -0.000000
    28  H    0.000000  -0.000000  -0.000000
    29  H   -0.000002  -0.000000  -0.000000
    30  H    0.000000  -0.000000  -0.000000
    31  N    5.909069   0.365818   0.365819
    32  H    0.365818   0.442011  -0.021873
    33  H    0.365819  -0.021873   0.442088
 Mulliken charges:
               1
     1  C    0.048069
     2  C    0.048041
     3  C   -0.005207
     4  C   -0.125677
     5  C   -0.098874
     6  C    0.038283
     7  H    0.033362
     8  C    0.038282
     9  C   -0.125666
    10  C   -0.098866
    11  H    0.033360
    12  N   -0.228303
    13  N   -0.228310
    14  B    0.227502
    15  F   -0.281753
    16  F   -0.283248
    17  C   -0.082960
    18  C    0.049883
    19  C    0.050276
    20  C    0.022457
    21  H    0.073055
    22  C    0.022496
    23  H    0.073003
    24  C    0.026354
    25  H    0.078979
    26  H    0.078991
    27  H    0.023804
    28  H    0.061390
    29  H    0.023804
    30  H    0.061390
    31  N    0.002584
    32  H    0.221776
    33  H    0.221723
 Sum of Mulliken charges =  -0.00000
 Mulliken charges with hydrogens summed into heavy atoms:
               1
     1  C    0.048069
     2  C    0.048041
     3  C   -0.005207
     4  C   -0.101873
     5  C   -0.065512
     6  C    0.099673
     8  C    0.099672
     9  C   -0.101862
    10  C   -0.065506
    12  N   -0.228303
    13  N   -0.228310
    14  B    0.227502
    15  F   -0.281753
    16  F   -0.283248
    17  C   -0.082960
    18  C    0.122938
    19  C    0.123279
    20  C    0.101436
    22  C    0.101487
    24  C    0.026354
    31  N    0.446083
 Electronic spatial extent (au):  <R**2>=           6181.6729
 Charge=             -0.0000 electrons
 Dipole moment (field-independent basis, Debye):
    X=             30.4600    Y=              0.0004    Z=             -0.1538  Tot=             30.4604
 Quadrupole moment (field-independent basis, Debye-Ang):
   XX=            -39.2134   YY=           -124.8322   ZZ=           -116.8716
   XY=             -0.0073   XZ=              1.4699   YZ=             -0.0884
 Traceless Quadrupole moment (field-independent basis, Debye-Ang):
   XX=             54.4257   YY=            -31.1931   ZZ=            -23.2325
   XY=             -0.0073   XZ=              1.4699   YZ=             -0.0884
 Octapole moment (field-independent basis, Debye-Ang**2):
  XXX=            748.6576  YYY=             -0.0070  ZZZ=              1.9328  XYY=            -19.1935
  XXY=             -0.0302  XXZ=              1.2252  XZZ=             66.4905  YZZ=             -0.0003
  YYZ=             -0.3786  XYZ=             -0.3595
 Hexadecapole moment (field-independent basis, Debye-Ang**3):
 XXXX=          -1850.1670 YYYY=          -2074.2652 ZZZZ=           -415.2348 XXXY=             -0.2955
 XXXZ=             22.0942 YYYX=              0.0046 YYYZ=              0.1059 ZZZX=              3.9964
 ZZZY=             -0.6460 XXYY=          -1232.7899 XXZZ=           -830.0431 YYZZ=           -501.9272
 XXYZ=             -1.4870 YYXZ=             -0.0750 ZZXY=             -0.0123
 N-N= 1.580272562191D+03 E-N=-5.417129802113D+03  KE= 9.571626065232D+02
 Unable to Open any file for archive entry.
 1\1\GINC-X1003C1S3B0N0\SP\RM062X TD-FC\def2SVP\C15H12B1F2N3\1008721\10
 -Oct-2025\0\\# td=(nstates=3,root=1) scrf=(smd,solvent=ethanol,correct
 edlr,noneq=save) def2svp m062x\\BDP-NH2_ethanol_m062x_m062x_m062x\\0,1
 \C,0,-0.619573,1.230661,-0.02482\C,0,-0.619396,-1.23053,-0.027405\C,0,
 0.09279,0.000105,-0.015291\C,0,-0.169924,2.570715,-0.048718\C,0,-1.321
 889,3.391935,-0.064267\C,0,-2.427294,2.546153,-0.048856\H,0,-1.351805,
 4.481031,-0.087539\C,0,-2.4269,-2.546288,-0.053188\C,0,-0.169528,-2.57
 0484,-0.052793\C,0,-1.321357,-3.391868,-0.069588\H,0,-1.351091,-4.4809
 46,-0.09391\N,0,-2.009013,1.241292,-0.024374\N,0,-2.008837,-1.241381,-
 0.027257\B,0,-2.917092,-0.000194,0.050143\F,0,-3.655205,-0.001637,1.25
 6926\F,0,-3.848173,0.000984,-1.01061\C,0,1.574783,0.000149,-0.003434\C
 ,0,2.312039,0.006553,-1.221561\C,0,2.288943,-0.005981,1.228456\C,0,3.6
 86219,0.007326,-1.223117\H,0,1.767623,0.011495,-2.167546\C,0,3.662602,
 -0.006907,1.255773\H,0,1.726691,-0.010685,2.163948\C,0,4.396489,0.0000
 22,0.023255\H,0,4.254689,0.013226,-2.155167\H,0,4.214234,-0.012637,2.1
 97961\H,0,0.871266,-2.890132,-0.063337\H,0,-3.487985,-2.792314,-0.0572
 09\H,0,0.870812,2.890536,-0.059656\H,0,-3.488421,2.791992,-0.053144\N,
 0,5.726341,-0.000351,0.036858\H,0,6.241988,-0.005745,0.915609\H,0,6.26
 0394,0.004719,-0.83083\\Version=ES64L-G16RevC.01\State=1-A\HF=-966.733
 9493\RMSD=4.500e-09\Dipole=11.9839037,0.0001518,-0.0605157\Quadrupole=
 40.4641512,-23.1913213,-17.2728299,-0.0053973,1.0927979,-0.0657521\PG=
 C01 [X(C15H12B1F2N3)]\\@
 The archive entry for this job was punched.


 IF YOU GIVE A BOY AND A PIG EVERYTHING THEY WANT,
 YOU'LL GET A BAD BOY AND A GOOD PIG.
 Job cpu time:       0 days  5 hours 30 minutes 35.3 seconds.
 Elapsed time:       0 days  0 hours 10 minutes 30.6 seconds.
 File lengths (MBytes):  RWF=    784 Int=      0 D2E=      0 Chk=     25 Scr=      1
 Normal termination of Gaussian 16 at Fri Oct 10 15:16:52 2025.
