 Entering Gaussian System, Link 0=g16
 Initial command:
 /home/users/sutd/1008721/g16/l1.exe "/home/users/sutd/1008721/scratch/g16/scratch/Gau-1655789.inp" -scrdir="/home/users/sutd/1008721/scratch/g16/scratch/"
 Entering Link 1 = /home/users/sutd/1008721/g16/l1.exe PID=   1655790.
  
 Copyright (c) 1988-2019, Gaussian, Inc.  All Rights Reserved.
  
 This is part of the Gaussian(R) 16 program.  It is based on
 the Gaussian(R) 09 system (copyright 2009, Gaussian, Inc.),
 the Gaussian(R) 03 system (copyright 2003, Gaussian, Inc.),
 the Gaussian(R) 98 system (copyright 1998, Gaussian, Inc.),
 the Gaussian(R) 94 system (copyright 1995, Gaussian, Inc.),
 the Gaussian 92(TM) system (copyright 1992, Gaussian, Inc.),
 the Gaussian 90(TM) system (copyright 1990, Gaussian, Inc.),
 the Gaussian 88(TM) system (copyright 1988, Gaussian, Inc.),
 the Gaussian 86(TM) system (copyright 1986, Carnegie Mellon
 University), and the Gaussian 82(TM) system (copyright 1983,
 Carnegie Mellon University). Gaussian is a federally registered
 trademark of Gaussian, Inc.
  
 This software contains proprietary and confidential information,
 including trade secrets, belonging to Gaussian, Inc.
  
 This software is provided under written license and may be
 used, copied, transmitted, or stored only in accord with that
 written license.
  
 The following legend is applicable only to US Government
 contracts under FAR:
  
                    RESTRICTED RIGHTS LEGEND
  
 Use, reproduction and disclosure by the US Government is
 subject to restrictions as set forth in subparagraphs (a)
 and (c) of the Commercial Computer Software - Restricted
 Rights clause in FAR 52.227-19.
  
 Gaussian, Inc.
 340 Quinnipiac St., Bldg. 40, Wallingford CT 06492
  
  
 ---------------------------------------------------------------
 Warning -- This program may not be used in any manner that
 competes with the business of Gaussian, Inc. or will provide
 assistance to any competitor of Gaussian, Inc.  The licensee
 of this program is prohibited from giving any competitor of
 Gaussian, Inc. access to this program.  By using this program,
 the user acknowledges that Gaussian, Inc. is engaged in the
 business of creating and licensing software in the field of
 computational chemistry and represents and warrants to the
 licensee that it is not a competitor of Gaussian, Inc. and that
 it will not use this program in any manner prohibited above.
 ---------------------------------------------------------------
  

 Cite this work as:
 Gaussian 16, Revision C.01,
 M. J. Frisch, G. W. Trucks, H. B. Schlegel, G. E. Scuseria, 
 M. A. Robb, J. R. Cheeseman, G. Scalmani, V. Barone, 
 G. A. Petersson, H. Nakatsuji, X. Li, M. Caricato, A. V. Marenich, 
 J. Bloino, B. G. Janesko, R. Gomperts, B. Mennucci, H. P. Hratchian, 
 J. V. Ortiz, A. F. Izmaylov, J. L. Sonnenberg, D. Williams-Young, 
 F. Ding, F. Lipparini, F. Egidi, J. Goings, B. Peng, A. Petrone, 
 T. Henderson, D. Ranasinghe, V. G. Zakrzewski, J. Gao, N. Rega, 
 G. Zheng, W. Liang, M. Hada, M. Ehara, K. Toyota, R. Fukuda, 
 J. Hasegawa, M. Ishida, T. Nakajima, Y. Honda, O. Kitao, H. Nakai, 
 T. Vreven, K. Throssell, J. A. Montgomery, Jr., J. E. Peralta, 
 F. Ogliaro, M. J. Bearpark, J. J. Heyd, E. N. Brothers, K. N. Kudin, 
 V. N. Staroverov, T. A. Keith, R. Kobayashi, J. Normand, 
 K. Raghavachari, A. P. Rendell, J. C. Burant, S. S. Iyengar, 
 J. Tomasi, M. Cossi, J. M. Millam, M. Klene, C. Adamo, R. Cammi, 
 J. W. Ochterski, R. L. Martin, K. Morokuma, O. Farkas, 
 J. B. Foresman, and D. J. Fox, Gaussian, Inc., Wallingford CT, 2019.
 
 ******************************************
 Gaussian 16:  ES64L-G16RevC.01  3-Jul-2019
                10-Oct-2025 
 ******************************************
 %nprocshared=32
 Will use up to   32 processors via shared memory.
 %mem=64GB
 %oldchk=06BDP-NH2_ethanol_m062x_m062x_m062x.chk
 %chk=07BDP-NH2_ethanol_m062x_m062x_m062x.chk
 Copying data from "06BDP-NH2_ethanol_m062x_m062x_m062x.chk" to current chk file "07BDP-NH2_ethanol_m062x_m062x_m062x.chk"
 IOpt=  2 FromEx=T IUOpen= 4 IOptOp= 5 NList=   0 IFRang= 0 IUIn= 4 IUOut= 2.
 ----------------------------------------------------------------------
 # m062x/def2svp geom=check guess=read SCRF=(SMD, solvent=ethanol, NonE
 q=Read)
 ----------------------------------------------------------------------
 1/29=2,38=1,172=1/1;
 2/12=2,40=1/2;
 3/5=43,7=101,11=2,14=-4,25=1,30=1,70=6032201,72=4,74=-55,116=-2/1,2,3;
 4/5=1/1;
 5/5=2,38=6,53=4/2;
 6/7=2,8=2,9=2,10=2,28=1/1;
 99/5=1,9=1/99;
 ---------------------------------
 BDP-NH2_ethanol_m062x_m062x_m062x
 ---------------------------------
 Structure from the checkpoint file:  "07BDP-NH2_ethanol_m062x_m062x_m062x.chk"
 Charge =  0 Multiplicity = 1
 Z-Matrix found in chk file.
 C,0,-0.619573,1.230661,-0.02482
 C,0,-0.619396,-1.23053,-0.027405
 C,0,0.09279,0.000105,-0.015291
 C,0,-0.169924,2.570715,-0.048718
 C,0,-1.321889,3.391935,-0.064267
 C,0,-2.427294,2.546153,-0.048856
 H,0,-1.351805,4.481031,-0.087539
 C,0,-2.4269,-2.546288,-0.053188
 C,0,-0.169528,-2.570484,-0.052793
 C,0,-1.321357,-3.391868,-0.069588
 H,0,-1.351091,-4.480946,-0.09391
 N,0,-2.009013,1.241292,-0.024374
 N,0,-2.008837,-1.241381,-0.027257
 B,0,-2.917092,-0.000194,0.050143
 F,0,-3.655205,-0.001637,1.256926
 F,0,-3.848173,0.000984,-1.01061
 C,0,1.574783,0.000149,-0.003434
 C,0,2.312039,0.006553,-1.221561
 C,0,2.288943,-0.005981,1.228456
 C,0,3.686219,0.007326,-1.223117
 H,0,1.767623,0.011495,-2.167546
 C,0,3.662602,-0.006907,1.255773
 H,0,1.726691,-0.010685,2.163948
 C,0,4.396489,0.000022,0.023255
 H,0,4.254689,0.013226,-2.155167
 H,0,4.214234,-0.012637,2.197961
 H,0,0.871266,-2.890132,-0.063337
 H,0,-3.487985,-2.792314,-0.057209
 H,0,0.870812,2.890536,-0.059656
 H,0,-3.488421,2.791992,-0.053144
 N,0,5.726341,-0.000351,0.036858
 H,0,6.241988,-0.005745,0.915609
 H,0,6.260394,0.004719,-0.83083
 Recover connectivity data from disk.
                          Input orientation:                          
 ---------------------------------------------------------------------
 Center     Atomic      Atomic             Coordinates (Angstroms)
 Number     Number       Type             X           Y           Z
 ---------------------------------------------------------------------
      1          6           0       -0.619573    1.230661   -0.024820
      2          6           0       -0.619396   -1.230530   -0.027405
      3          6           0        0.092790    0.000105   -0.015291
      4          6           0       -0.169924    2.570715   -0.048718
      5          6           0       -1.321889    3.391935   -0.064267
      6          6           0       -2.427294    2.546153   -0.048856
      7          1           0       -1.351805    4.481031   -0.087539
      8          6           0       -2.426900   -2.546288   -0.053188
      9          6           0       -0.169528   -2.570484   -0.052793
     10          6           0       -1.321357   -3.391868   -0.069588
     11          1           0       -1.351091   -4.480946   -0.093910
     12          7           0       -2.009013    1.241292   -0.024374
     13          7           0       -2.008837   -1.241381   -0.027257
     14          5           0       -2.917092   -0.000194    0.050143
     15          9           0       -3.655205   -0.001637    1.256926
     16          9           0       -3.848173    0.000984   -1.010610
     17          6           0        1.574783    0.000149   -0.003434
     18          6           0        2.312039    0.006553   -1.221561
     19          6           0        2.288943   -0.005981    1.228456
     20          6           0        3.686219    0.007326   -1.223117
     21          1           0        1.767623    0.011495   -2.167546
     22          6           0        3.662602   -0.006907    1.255773
     23          1           0        1.726691   -0.010685    2.163948
     24          6           0        4.396489    0.000022    0.023255
     25          1           0        4.254689    0.013226   -2.155167
     26          1           0        4.214234   -0.012637    2.197961
     27          1           0        0.871266   -2.890132   -0.063337
     28          1           0       -3.487985   -2.792314   -0.057209
     29          1           0        0.870812    2.890536   -0.059656
     30          1           0       -3.488421    2.791992   -0.053144
     31          7           0        5.726341   -0.000351    0.036858
     32          1           0        6.241988   -0.005745    0.915609
     33          1           0        6.260394    0.004719   -0.830830
 ---------------------------------------------------------------------
                    Distance matrix (angstroms):
                    1          2          3          4          5
     1  C    0.000000
     2  C    2.461192   0.000000
     3  C    1.421907   1.421907   0.000000
     4  C    1.413683   3.827786   2.584216   0.000000
     5  C    2.272864   4.675686   3.675354   1.414803   0.000000
     6  C    2.235834   4.187158   3.582501   2.257504   1.391943
     7  H    3.332417   5.758643   4.708585   2.246699   1.089755
     8  C    4.187192   2.235834   3.582512   5.592645   6.040171
     9  C    3.827797   1.413684   2.584211   5.141201   6.072768
    10  C    4.675712   2.272864   3.675356   6.072778   6.783805
    11  H    5.758676   3.332417   4.708587   7.150043   7.872991
    12  N    1.389481   2.835657   2.440943   2.269407   2.258096
    13  N    2.835675   1.389483   2.440956   4.232510   4.684110
    14  B    2.607531   2.607517   3.010593   3.763812   3.750240
    15  F    3.518024   3.517928   3.958031   4.524255   4.325072
    16  F    3.592735   3.592815   4.064708   4.588929   4.333154
    17  C    2.515912   2.515863   1.482040   3.107067   4.460787
    18  C    3.394846   3.398484   2.525905   3.756412   5.099566
    19  C    3.399919   3.396343   2.523892   3.783723   5.123970
    20  C    4.633822   4.636845   3.790993   4.777030   6.154645
    21  H    3.431668   3.438123   2.727159   3.846183   5.039468
    22  C    4.637727   4.634577   3.789355   4.799384   6.175741
    23  H    3.440436   3.434265   2.723753   3.893156   5.082972
    24  C    5.165042   5.164874   4.303872   5.240780   6.649254
    25  H    5.457010   5.461777   4.679812   5.527665   6.847318
    26  H    5.463720   5.458891   4.678135   5.562564   6.881674
    27  H    4.382353   2.231063   2.993627   5.559239   6.653893
    28  H    4.940968   3.266322   4.541069   6.306479   6.552630
    29  H    2.231064   4.382345   2.993640   1.088823   2.249302
    30  H    3.266320   4.940916   4.541050   3.325869   2.248092
    31  N    6.464505   6.464197   5.633792   6.433012   7.822747
    32  H    7.035206   7.033347   6.219264   6.977155   8.349648
    33  H    7.034666   7.035826   6.221291   6.967426   8.339776
                    6          7          8          9         10
     6  C    0.000000
     7  H    2.214029   0.000000
     8  C    5.092443   7.109165   0.000000
     9  C    5.592629   7.150024   2.257502   0.000000
    10  C    6.040167   7.872978   1.391941   1.414802   0.000000
    11  H    7.109175   8.961979   2.214029   2.246697   1.089755
    12  N    1.370482   3.306330   3.810672   4.232511   4.684131
    13  N    3.810641   5.760323   1.370486   2.269411   2.258100
    14  B    2.594915   4.748732   2.594910   3.763787   3.750221
    15  F    3.115135   5.216086   3.114543   4.523747   4.324367
    16  F    3.069487   5.211020   3.070060   4.589367   4.333794
    17  C    4.743503   5.352597   4.743446   3.106962   4.460693
    18  C    5.503279   5.893277   5.508143   3.763683   5.106650
    19  C    5.512514   5.926227   5.507717   3.776553   5.116973
    20  C    6.723063   6.832661   6.727548   4.783466   6.161247
    21  H    5.339538   5.833868   5.348531   3.858931   5.052337
    22  C    6.731048   6.862241   6.726356   4.792650   6.168824
    23  H    5.356259   5.892524   5.347644   3.881000   5.070668
    24  C    7.283680   7.289348   7.283418   5.240400   6.648857
    25  H    7.449910   7.461176   7.457416   5.537981   6.858323
    26  H    7.463611   7.509817   7.455986   5.552103   6.870498
    27  H    6.358766   7.699135   3.316056   1.088824   2.249305
    28  H    5.442827   7.580616   1.089241   3.325866   2.248087
    29  H    3.316055   2.733218   6.358774   5.559235   6.653894
    30  H    1.089241   2.723814   5.442799   6.306441   6.552600
    31  N    8.542470   8.378449   8.541969   6.432332   7.822005
    32  H    9.088390   8.877114   9.085293   6.973036   8.345096
    33  H    9.085499   8.862021   9.087433   6.970001   8.342616
                   11         12         13         14         15
    11  H    0.000000
    12  N    5.760356   0.000000
    13  N    3.306335   2.482675   0.000000
    14  B    4.748710   1.539951   1.539956   0.000000
    15  F    5.215161   2.428281   2.428295   1.414616   0.000000
    16  F    5.211857   2.427660   2.427676   1.411421   2.275734
    17  C    5.352489   3.792686   3.792664   4.492195   5.379710
    18  C    5.901505   4.650734   4.653350   5.381551   6.461499
    19  C    5.918092   4.647332   4.644776   5.337720   5.944218
    20  C    6.840628   5.949397   5.951724   6.724951   7.749013
    21  H    5.848792   4.513155   4.517985   5.183130   6.413598
    22  C    6.853888   5.946763   5.944351   6.689242   7.317809
    23  H    5.878256   4.506849   4.502240   5.102255   5.457799
    24  C    7.288860   6.524835   6.524709   7.313630   8.145657
    25  H    7.474699   6.729219   6.733038   7.503200   8.614466
    26  H    7.496086   6.726062   6.722203   7.447757   7.925512
    27  H    2.733221   5.036486   3.318836   4.766159   5.529506
    28  H    2.723810   4.296326   2.143401   2.851908   3.089141
    29  H    7.699141   3.318832   5.036484   4.766193   5.530179
    30  H    7.580598   2.143396   4.296270   2.851909   3.090059
    31  N    8.377522   7.834611   7.834363   8.643443   9.460548
    32  H    8.871381   8.397481   8.395946   9.199881   9.903077
    33  H    8.865605   8.400153   8.401112   9.219674  10.133009
                   16         17         18         19         20
    16  F    0.000000
    17  C    5.515692   0.000000
    18  C    6.163825   1.423875   0.000000
    19  C    6.532814   1.423943   2.450158   0.000000
    20  C    7.537391   2.438409   1.374181   2.821838   0.000000
    21  H    5.733740   2.172716   1.091467   3.435827   2.138451
    22  C    7.845272   2.438163   2.821593   1.373931   2.479043
    23  H    6.415377   2.172726   3.435782   1.091464   3.913091
    24  C    8.309232   2.821832   2.427868   2.427817   1.434566
    25  H    8.183308   3.436862   2.155355   3.913238   1.091746
    26  H    8.677414   3.437005   3.913035   2.155627   3.461643
    27  H    5.615067   2.975273   3.436291   3.463649   4.202893
    28  H    2.973419   5.782072   6.544437   6.541367   7.788872
    29  H    5.614503   2.975411   3.427027   3.472771   4.194408
    30  H    2.972522   5.782118   6.539817   6.545921   7.784514
    31  N    9.631641   4.151754   3.638836   3.638082   2.397852
    32  H   10.272376   4.756835   4.473494   3.965405   3.332608
    33  H   10.110166   4.758104   3.967642   4.473611   2.603896
                   21         22         23         24         25
    21  H    0.000000
    22  C    3.912850   0.000000
    23  H    4.331744   2.138352   0.000000
    24  C    3.422087   1.434482   3.422061   0.000000
    25  H    2.487097   3.462006   5.004608   2.183072   0.000000
    26  H    5.004412   1.091810   2.487776   2.182366   4.353393
    27  H    3.694671   4.224286   3.739487   4.559351   4.924712
    28  H    6.319516   7.785455   6.313782   8.364720   8.498322
    29  H    3.679178   4.233157   3.754201   4.559862   4.911283
    30  H    6.310932   7.790008   6.322016   8.364971   8.490924
    31  N    4.531113   2.396834   4.530101   1.329922   2.640250
    32  H    5.433791   2.601720   4.684686   2.049926   3.657784
    33  H    4.687414   3.332052   5.433544   2.050274   2.403496
                   26         27         28         29         30
    26  H    0.000000
    27  H    4.956701   0.000000
    28  H    8.493325   4.360353   0.000000
    29  H    4.970284   5.780669   7.161976   0.000000
    30  H    8.500842   7.161949   5.584307   4.360352   0.000000
    31  N    2.637610   5.650896   9.628484   5.651788   9.628973
    32  H    2.399221   6.174357  10.167778   6.179734  10.170874
    33  H    3.655222   6.165380  10.171174   6.162000  10.169222
                   31         32         33
    31  N    0.000000
    32  H    1.018884   0.000000
    33  H    1.018882   1.746567   0.000000
 Stoichiometry    C15H12BF2N3
 Framework group  C1[X(C15H12BF2N3)]
 Deg. of freedom    93
 Full point group                 C1      NOp   1
 Largest Abelian subgroup         C1      NOp   1
 Largest concise Abelian subgroup C1      NOp   1
                         Standard orientation:                         
 ---------------------------------------------------------------------
 Center     Atomic      Atomic             Coordinates (Angstroms)
 Number     Number       Type             X           Y           Z
 ---------------------------------------------------------------------
      1          6           0       -0.619573    1.230661   -0.024820
      2          6           0       -0.619396   -1.230530   -0.027405
      3          6           0        0.092790    0.000105   -0.015291
      4          6           0       -0.169924    2.570715   -0.048718
      5          6           0       -1.321889    3.391935   -0.064267
      6          6           0       -2.427294    2.546153   -0.048856
      7          1           0       -1.351805    4.481031   -0.087539
      8          6           0       -2.426900   -2.546288   -0.053188
      9          6           0       -0.169528   -2.570484   -0.052793
     10          6           0       -1.321357   -3.391868   -0.069588
     11          1           0       -1.351091   -4.480946   -0.093910
     12          7           0       -2.009013    1.241292   -0.024374
     13          7           0       -2.008837   -1.241381   -0.027257
     14          5           0       -2.917092   -0.000194    0.050143
     15          9           0       -3.655205   -0.001637    1.256926
     16          9           0       -3.848173    0.000984   -1.010610
     17          6           0        1.574783    0.000149   -0.003434
     18          6           0        2.312039    0.006553   -1.221561
     19          6           0        2.288943   -0.005981    1.228456
     20          6           0        3.686219    0.007326   -1.223117
     21          1           0        1.767623    0.011495   -2.167546
     22          6           0        3.662602   -0.006907    1.255773
     23          1           0        1.726691   -0.010685    2.163948
     24          6           0        4.396489    0.000022    0.023255
     25          1           0        4.254689    0.013226   -2.155167
     26          1           0        4.214234   -0.012637    2.197961
     27          1           0        0.871266   -2.890132   -0.063337
     28          1           0       -3.487985   -2.792314   -0.057209
     29          1           0        0.870812    2.890536   -0.059656
     30          1           0       -3.488421    2.791992   -0.053144
     31          7           0        5.726341   -0.000351    0.036858
     32          1           0        6.241988   -0.005745    0.915609
     33          1           0        6.260394    0.004719   -0.830830
 ---------------------------------------------------------------------
 Rotational constants (GHZ):           0.5703769           0.2106994           0.1685602
 Standard basis: def2SVP (5D, 7F)
 There are   375 symmetry adapted cartesian basis functions of A   symmetry.
 There are   354 symmetry adapted basis functions of A   symmetry.
   354 basis functions,   609 primitive gaussians,   375 cartesian basis functions
    73 alpha electrons       73 beta electrons
       nuclear repulsion energy      1580.2731707943 Hartrees.
 NAtoms=   33 NActive=   33 NUniq=   33 SFac= 1.00D+00 NAtFMM=   60 NAOKFM=F Big=F
 Integral buffers will be    131072 words long.
 Raffenetti 2 integral format.
 Two-electron integral symmetry is turned on.
 ------------------------------------------------------------------------------
 Polarizable Continuum Model (PCM)
 =================================
 Model                : PCM.
 Atomic radii         : SMD-Coulomb.
 Polarization charges : Total charges.
 Charge compensation  : None.
 Solution method      : On-the-fly selection.
 Cavity type          : VdW (van der Waals Surface) (Alpha=1.000).
 Cavity algorithm     : GePol (No added spheres)
                        Default sphere list used, NSphG=   33.
                        Lebedev-Laikov grids with approx.  5.0 points / Ang**2.
                        Smoothing algorithm: York/Karplus (Gamma=1.0000).
                        Polarization charges: spherical gaussians, with
                                              point-specific exponents (IZeta= 3).
                        Self-potential: point-specific (ISelfS= 7).
                        Self-field    : sphere-specific E.n sum rule (ISelfD= 2).
 Solvent              : Ethanol, Eps=  24.852000 Eps(inf)=   1.852593
 ------------------------------------------------------------------------------
 ------------------------------------------------------------------------------
 Atomic radii for non-electrostatic terms: SMD-CDS.
 ------------------------------------------------------------------------------
 Nuclear repulsion after PCM non-electrostatic terms =     1580.2725621907 Hartrees.
 One-electron integrals computed using PRISM.
   1 Symmetry operations used in ECPInt.
 ECPInt:  NShTT=   13203 NPrTT=   49137 LenC2=   11963 LenP2D=   30951.
 LDataN:  DoStor=T MaxTD1= 4 Len=   56
 NBasis=   354 RedAO= T EigKep=  2.83D-04  NBF=   354
 NBsUse=   354 1.00D-06 EigRej= -1.00D+00 NBFU=   354
 Initial guess from the checkpoint file:  "07BDP-NH2_ethanol_m062x_m062x_m062x.chk"
 B after Tr=    -0.000000   -0.000000   -0.000000
         Rot=    1.000000    0.000000    0.000000    0.000000 Ang=   0.00 deg.
 Requested convergence on RMS density matrix=1.00D-08 within 128 cycles.
 Requested convergence on MAX density matrix=1.00D-06.
 Requested convergence on             energy=1.00D-06.
 No special actions if energy rises.
 Inv3:  Mode=1 IEnd=    20342448.
 Iteration    1 A*A^-1 deviation from unit magnitude is 5.11D-15 for   2603.
 Iteration    1 A*A^-1 deviation from orthogonality  is 2.11D-15 for   1620    844.
 Iteration    1 A^-1*A deviation from unit magnitude is 5.33D-15 for   2603.
 Iteration    1 A^-1*A deviation from orthogonality  is 1.42D-13 for   1647   1582.
 NEqPCM:  Using non-equilibrium solvation (IEInf=1, Eps=  24.8520, EpsInf=   1.8526)
 Inv3:  Mode=1 IEnd=    20342448.
 Iteration    1 A*A^-1 deviation from unit magnitude is 8.22D-15 for   2600.
 Iteration    1 A*A^-1 deviation from orthogonality  is 2.24D-15 for   1595   1135.
 Iteration    1 A^-1*A deviation from unit magnitude is 8.22D-15 for   2600.
 Iteration    1 A^-1*A deviation from orthogonality  is 2.97D-15 for   2303    883.
 Error on total polarization charges =  0.02039
 SCF Done:  E(RM062X) =  -966.715276257     A.U. after   15 cycles
            NFock= 15  Conv=0.26D-08     -V/T= 2.0100
 SMD-CDS (non-electrostatic) energy       (kcal/mol) =      -0.38
 (included in total energy above)

 **********************************************************************

            Population analysis using the SCF Density.

 **********************************************************************

 Orbital symmetries:
       Occupied  (A) (A) (A) (A) (A) (A) (A) (A) (A) (A) (A) (A)
                 (A) (A) (A) (A) (A) (A) (A) (A) (A) (A) (A) (A)
                 (A) (A) (A) (A) (A) (A) (A) (A) (A) (A) (A) (A)
                 (A) (A) (A) (A) (A) (A) (A) (A) (A) (A) (A) (A)
                 (A) (A) (A) (A) (A) (A) (A) (A) (A) (A) (A) (A)
                 (A) (A) (A) (A) (A) (A) (A) (A) (A) (A) (A) (A)
                 (A)
       Virtual   (A) (A) (A) (A) (A) (A) (A) (A) (A) (A) (A) (A)
                 (A) (A) (A) (A) (A) (A) (A) (A) (A) (A) (A) (A)
                 (A) (A) (A) (A) (A) (A) (A) (A) (A) (A) (A) (A)
                 (A) (A) (A) (A) (A) (A) (A) (A) (A) (A) (A) (A)
                 (A) (A) (A) (A) (A) (A) (A) (A) (A) (A) (A) (A)
                 (A) (A) (A) (A) (A) (A) (A) (A) (A) (A) (A) (A)
                 (A) (A) (A) (A) (A) (A) (A) (A) (A) (A) (A) (A)
                 (A) (A) (A) (A) (A) (A) (A) (A) (A) (A) (A) (A)
                 (A) (A) (A) (A) (A) (A) (A) (A) (A) (A) (A) (A)
                 (A) (A) (A) (A) (A) (A) (A) (A) (A) (A) (A) (A)
                 (A) (A) (A) (A) (A) (A) (A) (A) (A) (A) (A) (A)
                 (A) (A) (A) (A) (A) (A) (A) (A) (A) (A) (A) (A)
                 (A) (A) (A) (A) (A) (A) (A) (A) (A) (A) (A) (A)
                 (A) (A) (A) (A) (A) (A) (A) (A) (A) (A) (A) (A)
                 (A) (A) (A) (A) (A) (A) (A) (A) (A) (A) (A) (A)
                 (A) (A) (A) (A) (A) (A) (A) (A) (A) (A) (A) (A)
                 (A) (A) (A) (A) (A) (A) (A) (A) (A) (A) (A) (A)
                 (A) (A) (A) (A) (A) (A) (A) (A) (A) (A) (A) (A)
                 (A) (A) (A) (A) (A) (A) (A) (A) (A) (A) (A) (A)
                 (A) (A) (A) (A) (A) (A) (A) (A) (A) (A) (A) (A)
                 (A) (A) (A) (A) (A) (A) (A) (A) (A) (A) (A) (A)
                 (A) (A) (A) (A) (A) (A) (A) (A) (A) (A) (A) (A)
                 (A) (A) (A) (A) (A) (A) (A) (A) (A) (A) (A) (A)
                 (A) (A) (A) (A) (A)
 The electronic state is 1-A.
 Alpha  occ. eigenvalues --  -25.21746 -25.21602 -14.81245 -14.81244 -14.73469
 Alpha  occ. eigenvalues --  -10.63807 -10.62249 -10.62247 -10.61368 -10.61362
 Alpha  occ. eigenvalues --  -10.58747 -10.58744 -10.58024 -10.57454 -10.57454
 Alpha  occ. eigenvalues --  -10.54846 -10.54671 -10.54660 -10.52574 -10.52570
 Alpha  occ. eigenvalues --   -7.15685  -1.30228  -1.26693  -1.11124  -1.09116
 Alpha  occ. eigenvalues --   -0.99597  -0.94471  -0.90282  -0.89060  -0.88069
 Alpha  occ. eigenvalues --   -0.83465  -0.81519  -0.80101  -0.74670  -0.70582
 Alpha  occ. eigenvalues --   -0.68774  -0.67187  -0.67037  -0.66841  -0.64909
 Alpha  occ. eigenvalues --   -0.63431  -0.60946  -0.58865  -0.58728  -0.57011
 Alpha  occ. eigenvalues --   -0.56287  -0.55022  -0.54261  -0.52290  -0.52192
 Alpha  occ. eigenvalues --   -0.52015  -0.51948  -0.49557  -0.48135  -0.48101
 Alpha  occ. eigenvalues --   -0.47774  -0.47541  -0.47379  -0.46845  -0.46661
 Alpha  occ. eigenvalues --   -0.46600  -0.46534  -0.44067  -0.43628  -0.41559
 Alpha  occ. eigenvalues --   -0.38312  -0.36065  -0.35942  -0.34171  -0.33243
 Alpha  occ. eigenvalues --   -0.29729  -0.28629  -0.21974
 Alpha virt. eigenvalues --   -0.10331   0.04049   0.05269   0.05783   0.05987
 Alpha virt. eigenvalues --    0.08667   0.11550   0.12422   0.12981   0.13142
 Alpha virt. eigenvalues --    0.14109   0.14649   0.15435   0.15796   0.16015
 Alpha virt. eigenvalues --    0.16338   0.17087   0.19664   0.19930   0.20655
 Alpha virt. eigenvalues --    0.20962   0.21641   0.22546   0.23105   0.24364
 Alpha virt. eigenvalues --    0.24389   0.25759   0.28483   0.28890   0.29534
 Alpha virt. eigenvalues --    0.31191   0.33007   0.33432   0.35090   0.35785
 Alpha virt. eigenvalues --    0.36208   0.37622   0.37664   0.38881   0.40006
 Alpha virt. eigenvalues --    0.41075   0.42064   0.42525   0.43729   0.44004
 Alpha virt. eigenvalues --    0.44684   0.44835   0.45653   0.45845   0.46514
 Alpha virt. eigenvalues --    0.46978   0.48095   0.48450   0.49496   0.50064
 Alpha virt. eigenvalues --    0.52062   0.53385   0.53848   0.54003   0.54406
 Alpha virt. eigenvalues --    0.54449   0.55591   0.56346   0.58888   0.59347
 Alpha virt. eigenvalues --    0.59546   0.59739   0.61050   0.62410   0.62600
 Alpha virt. eigenvalues --    0.64042   0.64183   0.66148   0.67654   0.68761
 Alpha virt. eigenvalues --    0.68784   0.69371   0.70046   0.70406   0.71112
 Alpha virt. eigenvalues --    0.71388   0.71892   0.73717   0.74701   0.74804
 Alpha virt. eigenvalues --    0.75208   0.75463   0.76161   0.76377   0.76578
 Alpha virt. eigenvalues --    0.77770   0.77797   0.78332   0.79458   0.80965
 Alpha virt. eigenvalues --    0.82614   0.83018   0.83557   0.86737   0.86761
 Alpha virt. eigenvalues --    0.88354   0.88846   0.89225   0.90414   0.91390
 Alpha virt. eigenvalues --    0.92840   0.93915   0.95278   0.98487   0.98885
 Alpha virt. eigenvalues --    1.01296   1.02175   1.05695   1.06626   1.07420
 Alpha virt. eigenvalues --    1.09094   1.09680   1.13586   1.14881   1.16708
 Alpha virt. eigenvalues --    1.17289   1.17349   1.21167   1.22509   1.23495
 Alpha virt. eigenvalues --    1.24529   1.27452   1.28241   1.30124   1.30434
 Alpha virt. eigenvalues --    1.30822   1.30861   1.32433   1.32845   1.33667
 Alpha virt. eigenvalues --    1.33816   1.34824   1.35705   1.35823   1.37847
 Alpha virt. eigenvalues --    1.37969   1.39548   1.40024   1.40662   1.43525
 Alpha virt. eigenvalues --    1.44669   1.44669   1.48962   1.51307   1.52535
 Alpha virt. eigenvalues --    1.54996   1.57798   1.59078   1.59222   1.65519
 Alpha virt. eigenvalues --    1.65670   1.66127   1.67090   1.68812   1.69174
 Alpha virt. eigenvalues --    1.70351   1.71858   1.72991   1.73290   1.74529
 Alpha virt. eigenvalues --    1.75311   1.75684   1.76684   1.77322   1.78710
 Alpha virt. eigenvalues --    1.79349   1.81197   1.81379   1.81461   1.82545
 Alpha virt. eigenvalues --    1.83098   1.83715   1.84736   1.87480   1.87727
 Alpha virt. eigenvalues --    1.87856   1.88604   1.91113   1.91377   1.92340
 Alpha virt. eigenvalues --    1.93715   1.94056   1.94295   1.95286   1.95832
 Alpha virt. eigenvalues --    1.96145   1.96749   1.97960   1.99343   2.01285
 Alpha virt. eigenvalues --    2.03197   2.03363   2.04782   2.05928   2.07649
 Alpha virt. eigenvalues --    2.08405   2.11699   2.13785   2.14307   2.15866
 Alpha virt. eigenvalues --    2.17820   2.18220   2.18318   2.20317   2.21840
 Alpha virt. eigenvalues --    2.22345   2.22964   2.25047   2.26187   2.26369
 Alpha virt. eigenvalues --    2.28069   2.30462   2.31057   2.31160   2.31471
 Alpha virt. eigenvalues --    2.32832   2.34611   2.36707   2.40270   2.42176
 Alpha virt. eigenvalues --    2.43485   2.44344   2.45590   2.48969   2.54366
 Alpha virt. eigenvalues --    2.54659   2.54825   2.60164   2.60734   2.62238
 Alpha virt. eigenvalues --    2.63997   2.66317   2.67249   2.68776   2.68796
 Alpha virt. eigenvalues --    2.68928   2.70215   2.70806   2.71176   2.72272
 Alpha virt. eigenvalues --    2.72442   2.75467   2.77175   2.80686   2.82444
 Alpha virt. eigenvalues --    2.84813   2.86355   2.88543   2.89249   2.92273
 Alpha virt. eigenvalues --    2.94332   2.96461   2.99146   3.00899   3.09985
 Alpha virt. eigenvalues --    3.14559   3.16695   3.17245   3.17541   3.19633
 Alpha virt. eigenvalues --    3.21385   3.21581   3.22601   3.24908   3.26411
 Alpha virt. eigenvalues --    3.30113   3.41071   3.43988   3.45527   3.49336
 Alpha virt. eigenvalues --    3.49803   3.60997   3.62677   3.65367   3.77599
 Alpha virt. eigenvalues --    3.78982
          Condensed to atoms (all electrons):
               1          2          3          4          5          6
     1  C    5.285846  -0.055690   0.252460   0.386909   0.007584  -0.149221
     2  C   -0.055690   5.285838   0.252476   0.013656  -0.000510  -0.000168
     3  C    0.252460   0.252476   5.473163  -0.108007   0.022536   0.009208
     4  C    0.386909   0.013656  -0.108007   5.111372   0.327376   0.000649
     5  C    0.007584  -0.000510   0.022536   0.327376   5.100233   0.359523
     6  C   -0.149221  -0.000168   0.009208   0.000649   0.359523   4.886120
     7  H    0.011143   0.000007  -0.000438  -0.056165   0.454775  -0.056817
     8  C   -0.000167  -0.149225   0.009204   0.000029  -0.000002  -0.000000
     9  C    0.013657   0.386918  -0.108008  -0.000097   0.000002   0.000029
    10  C   -0.000510   0.007589   0.022537   0.000002  -0.000000  -0.000002
    11  H    0.000007   0.011143  -0.000438   0.000000   0.000000   0.000000
    12  N    0.428445  -0.003771  -0.086696  -0.103995  -0.065665   0.424370
    13  N   -0.003777   0.428429  -0.086684  -0.000253  -0.000007   0.000368
    14  B   -0.046127  -0.046127  -0.013038   0.003102  -0.001359  -0.009255
    15  F   -0.003206  -0.003204   0.001491  -0.000026  -0.000121  -0.001463
    16  F   -0.003295  -0.003296   0.001638  -0.000083   0.000167  -0.000112
    17  C   -0.103471  -0.103459   0.419461  -0.003118   0.000181   0.000054
    18  C   -0.011812  -0.011633  -0.055622   0.000176   0.000054  -0.000010
    19  C   -0.011358  -0.011539  -0.055484   0.000290   0.000045  -0.000010
    20  C    0.001128   0.001110   0.006992  -0.000200  -0.000010   0.000000
    21  H   -0.001755  -0.001763  -0.009556   0.000281   0.000009  -0.000003
    22  C    0.001119   0.001135   0.006946  -0.000168  -0.000010   0.000000
    23  H   -0.001770  -0.001758  -0.009697   0.000200   0.000011  -0.000004
    24  C    0.000006   0.000006   0.001913  -0.000020   0.000002  -0.000000
    25  H   -0.000010  -0.000009  -0.000260  -0.000003  -0.000000   0.000000
    26  H   -0.000009  -0.000010  -0.000259  -0.000003  -0.000000   0.000000
    27  H   -0.000256  -0.028764  -0.020099   0.000002   0.000000  -0.000000
    28  H    0.000057   0.003215  -0.000414  -0.000001   0.000000   0.000005
    29  H   -0.028771  -0.000255  -0.020096   0.450541  -0.064209   0.010934
    30  H    0.003215   0.000057  -0.000414   0.009809  -0.053895   0.428796
    31  N   -0.000000  -0.000000   0.000011   0.000000   0.000000  -0.000000
    32  H   -0.000000  -0.000000   0.000000   0.000000   0.000000   0.000000
    33  H   -0.000000  -0.000000   0.000000   0.000000   0.000000   0.000000
               7          8          9         10         11         12
     1  C    0.011143  -0.000167   0.013657  -0.000510   0.000007   0.428445
     2  C    0.000007  -0.149225   0.386918   0.007589   0.011143  -0.003771
     3  C   -0.000438   0.009204  -0.108008   0.022537  -0.000438  -0.086696
     4  C   -0.056165   0.000029  -0.000097   0.000002   0.000000  -0.103995
     5  C    0.454775  -0.000002   0.000002  -0.000000   0.000000  -0.065665
     6  C   -0.056817  -0.000000   0.000029  -0.000002   0.000000   0.424370
     7  H    0.587288   0.000000   0.000000   0.000000  -0.000000   0.004611
     8  C    0.000000   4.886112   0.000662   0.359515  -0.056818   0.000369
     9  C    0.000000   0.000662   5.111362   0.327355  -0.056165  -0.000253
    10  C    0.000000   0.359515   0.327355   5.100255   0.454776  -0.000007
    11  H   -0.000000  -0.056818  -0.056165   0.454776   0.587288   0.000002
    12  N    0.004611   0.000369  -0.000253  -0.000007   0.000002   6.479069
    13  N    0.000002   0.424366  -0.104003  -0.065663   0.004611  -0.056352
    14  B    0.000138  -0.009247   0.003102  -0.001362   0.000138   0.296616
    15  F    0.000001  -0.001454  -0.000026  -0.000121   0.000001  -0.036481
    16  F    0.000001  -0.000122  -0.000084   0.000167   0.000001  -0.035292
    17  C   -0.000021   0.000054  -0.003117   0.000181  -0.000021   0.003827
    18  C    0.000000  -0.000010   0.000168   0.000052   0.000000  -0.000075
    19  C    0.000000  -0.000010   0.000299   0.000046   0.000000  -0.000079
    20  C    0.000000   0.000000  -0.000192  -0.000010   0.000000   0.000003
    21  H   -0.000000  -0.000003   0.000268   0.000010  -0.000000  -0.000071
    22  C    0.000000   0.000000  -0.000175  -0.000010   0.000000   0.000003
    23  H   -0.000000  -0.000004   0.000212   0.000011  -0.000000  -0.000070
    24  C    0.000000  -0.000000  -0.000020   0.000002   0.000000  -0.000000
    25  H   -0.000000   0.000000  -0.000003  -0.000000  -0.000000  -0.000000
    26  H   -0.000000   0.000000  -0.000003  -0.000000  -0.000000  -0.000000
    27  H   -0.000000   0.010933   0.450538  -0.064212  -0.004185  -0.000014
    28  H   -0.000000   0.428796   0.009809  -0.053897  -0.003773   0.000144
    29  H   -0.004185  -0.000000   0.000002   0.000000  -0.000000   0.005059
    30  H   -0.003773   0.000005  -0.000000   0.000000  -0.000000  -0.033176
    31  N   -0.000000  -0.000000   0.000000   0.000000  -0.000000   0.000000
    32  H   -0.000000   0.000000   0.000000   0.000000  -0.000000  -0.000000
    33  H   -0.000000   0.000000   0.000000   0.000000  -0.000000  -0.000000
              13         14         15         16         17         18
     1  C   -0.003777  -0.046127  -0.003206  -0.003295  -0.103471  -0.011812
     2  C    0.428429  -0.046127  -0.003204  -0.003296  -0.103459  -0.011633
     3  C   -0.086684  -0.013038   0.001491   0.001638   0.419461  -0.055622
     4  C   -0.000253   0.003102  -0.000026  -0.000083  -0.003118   0.000176
     5  C   -0.000007  -0.001359  -0.000121   0.000167   0.000181   0.000054
     6  C    0.000368  -0.009255  -0.001463  -0.000112   0.000054  -0.000010
     7  H    0.000002   0.000138   0.000001   0.000001  -0.000021   0.000000
     8  C    0.424366  -0.009247  -0.001454  -0.000122   0.000054  -0.000010
     9  C   -0.104003   0.003102  -0.000026  -0.000084  -0.003117   0.000168
    10  C   -0.065663  -0.001362  -0.000121   0.000167   0.000181   0.000052
    11  H    0.004611   0.000138   0.000001   0.000001  -0.000021   0.000000
    12  N   -0.056352   0.296616  -0.036481  -0.035292   0.003827  -0.000075
    13  N    6.479094   0.296612  -0.036490  -0.035281   0.003829  -0.000076
    14  B    0.296612   3.383124   0.451370   0.441180   0.001896   0.000048
    15  F   -0.036490   0.451370   8.929463  -0.028440   0.000005   0.000000
    16  F   -0.035281   0.441180  -0.028440   8.934306   0.000004  -0.000000
    17  C    0.003829   0.001896   0.000005   0.000004   5.602971   0.216833
    18  C   -0.000076   0.000048   0.000000  -0.000000   0.216833   5.040619
    19  C   -0.000078  -0.000008  -0.000000  -0.000000   0.218046   0.091691
    20  C    0.000003  -0.000001  -0.000000  -0.000000   0.094250   0.303647
    21  H   -0.000070  -0.000001  -0.000000   0.000000  -0.084221   0.462488
    22  C    0.000003  -0.000000  -0.000000  -0.000000   0.094489  -0.120295
    23  H   -0.000072   0.000013   0.000000  -0.000000  -0.083531   0.012355
    24  C   -0.000000   0.000000   0.000000   0.000000  -0.186413   0.134051
    25  H   -0.000000  -0.000000   0.000000   0.000000   0.016137  -0.068305
    26  H   -0.000000  -0.000000   0.000000   0.000000   0.016111  -0.002376
    27  H    0.005059   0.000266   0.000001   0.000001   0.006314  -0.000273
    28  H   -0.033175   0.002061   0.000065   0.000984   0.000005  -0.000000
    29  H   -0.000014   0.000266   0.000001   0.000001   0.006310  -0.000247
    30  H    0.000144   0.002058   0.000062   0.000991   0.000005  -0.000000
    31  N    0.000000   0.000000   0.000000   0.000000   0.000008   0.007631
    32  H   -0.000000  -0.000000  -0.000000  -0.000000  -0.000024  -0.000503
    33  H   -0.000000  -0.000000  -0.000000   0.000000  -0.000024   0.000661
              19         20         21         22         23         24
     1  C   -0.011358   0.001128  -0.001755   0.001119  -0.001770   0.000006
     2  C   -0.011539   0.001110  -0.001763   0.001135  -0.001758   0.000006
     3  C   -0.055484   0.006992  -0.009556   0.006946  -0.009697   0.001913
     4  C    0.000290  -0.000200   0.000281  -0.000168   0.000200  -0.000020
     5  C    0.000045  -0.000010   0.000009  -0.000010   0.000011   0.000002
     6  C   -0.000010   0.000000  -0.000003   0.000000  -0.000004  -0.000000
     7  H    0.000000   0.000000  -0.000000   0.000000  -0.000000   0.000000
     8  C   -0.000010   0.000000  -0.000003   0.000000  -0.000004  -0.000000
     9  C    0.000299  -0.000192   0.000268  -0.000175   0.000212  -0.000020
    10  C    0.000046  -0.000010   0.000010  -0.000010   0.000011   0.000002
    11  H    0.000000   0.000000  -0.000000   0.000000  -0.000000   0.000000
    12  N   -0.000079   0.000003  -0.000071   0.000003  -0.000070  -0.000000
    13  N   -0.000078   0.000003  -0.000070   0.000003  -0.000072  -0.000000
    14  B   -0.000008  -0.000001  -0.000001  -0.000000   0.000013   0.000000
    15  F   -0.000000  -0.000000  -0.000000  -0.000000   0.000000   0.000000
    16  F   -0.000000  -0.000000   0.000000  -0.000000  -0.000000   0.000000
    17  C    0.218046   0.094250  -0.084221   0.094489  -0.083531  -0.186413
    18  C    0.091691   0.303647   0.462488  -0.120295   0.012355   0.134051
    19  C    5.038099  -0.119867   0.012306   0.303377   0.462316   0.134061
    20  C   -0.119867   5.270871  -0.060203   0.017909  -0.001946   0.180200
    21  H    0.012306  -0.060203   0.656978  -0.001936  -0.000177   0.014863
    22  C    0.303377   0.017909  -0.001936   5.271378  -0.060463   0.180213
    23  H    0.462316  -0.001946  -0.000177  -0.060463   0.656750   0.014858
    24  C    0.134061   0.180200   0.014863   0.180213   0.014858   5.127099
    25  H   -0.002381   0.461174  -0.012359   0.013592   0.000019  -0.070185
    26  H   -0.068370   0.013590   0.000019   0.461230  -0.012331  -0.070126
    27  H   -0.000348   0.000373  -0.000073   0.000345  -0.000072  -0.000036
    28  H   -0.000000   0.000000  -0.000000   0.000000  -0.000000  -0.000000
    29  H   -0.000370   0.000383  -0.000074   0.000335  -0.000072  -0.000036
    30  H   -0.000000   0.000000  -0.000000   0.000000  -0.000000  -0.000000
    31  N    0.007643  -0.107574  -0.000117  -0.107641  -0.000117   0.512388
    32  H    0.000670   0.011805   0.000011  -0.027022  -0.000020  -0.001177
    33  H   -0.000505  -0.026928  -0.000020   0.011818   0.000011  -0.001278
              25         26         27         28         29         30
     1  C   -0.000010  -0.000009  -0.000256   0.000057  -0.028771   0.003215
     2  C   -0.000009  -0.000010  -0.028764   0.003215  -0.000255   0.000057
     3  C   -0.000260  -0.000259  -0.020099  -0.000414  -0.020096  -0.000414
     4  C   -0.000003  -0.000003   0.000002  -0.000001   0.450541   0.009809
     5  C   -0.000000  -0.000000   0.000000   0.000000  -0.064209  -0.053895
     6  C    0.000000   0.000000  -0.000000   0.000005   0.010934   0.428796
     7  H   -0.000000  -0.000000  -0.000000  -0.000000  -0.004185  -0.003773
     8  C    0.000000   0.000000   0.010933   0.428796  -0.000000   0.000005
     9  C   -0.000003  -0.000003   0.450538   0.009809   0.000002  -0.000000
    10  C   -0.000000  -0.000000  -0.064212  -0.053897   0.000000   0.000000
    11  H   -0.000000  -0.000000  -0.004185  -0.003773  -0.000000  -0.000000
    12  N   -0.000000  -0.000000  -0.000014   0.000144   0.005059  -0.033176
    13  N   -0.000000  -0.000000   0.005059  -0.033175  -0.000014   0.000144
    14  B   -0.000000  -0.000000   0.000266   0.002061   0.000266   0.002058
    15  F    0.000000   0.000000   0.000001   0.000065   0.000001   0.000062
    16  F    0.000000   0.000000   0.000001   0.000984   0.000001   0.000991
    17  C    0.016137   0.016111   0.006314   0.000005   0.006310   0.000005
    18  C   -0.068305  -0.002376  -0.000273  -0.000000  -0.000247  -0.000000
    19  C   -0.002381  -0.068370  -0.000348  -0.000000  -0.000370  -0.000000
    20  C    0.461174   0.013590   0.000373   0.000000   0.000383   0.000000
    21  H   -0.012359   0.000019  -0.000073  -0.000000  -0.000074  -0.000000
    22  C    0.013592   0.461230   0.000345   0.000000   0.000335   0.000000
    23  H    0.000019  -0.012331  -0.000072  -0.000000  -0.000072  -0.000000
    24  C   -0.070185  -0.070126  -0.000036  -0.000000  -0.000036  -0.000000
    25  H    0.632335  -0.000127  -0.000001  -0.000000  -0.000001  -0.000000
    26  H   -0.000127   0.632210  -0.000001  -0.000000  -0.000001  -0.000000
    27  H   -0.000001  -0.000001   0.568547  -0.000107  -0.000001  -0.000000
    28  H   -0.000000  -0.000000  -0.000107   0.555839  -0.000000   0.000000
    29  H   -0.000001  -0.000001  -0.000001  -0.000000   0.568554  -0.000107
    30  H   -0.000000  -0.000000  -0.000000   0.000000  -0.000107   0.555843
    31  N   -0.010175  -0.010214  -0.000001   0.000000  -0.000001   0.000000
    32  H   -0.000263   0.004518  -0.000000  -0.000000  -0.000000  -0.000000
    33  H    0.004508  -0.000262  -0.000000  -0.000000  -0.000000  -0.000000
              31         32         33
     1  C   -0.000000  -0.000000  -0.000000
     2  C   -0.000000  -0.000000  -0.000000
     3  C    0.000011   0.000000   0.000000
     4  C    0.000000   0.000000   0.000000
     5  C    0.000000   0.000000   0.000000
     6  C   -0.000000   0.000000   0.000000
     7  H   -0.000000  -0.000000  -0.000000
     8  C   -0.000000   0.000000   0.000000
     9  C    0.000000   0.000000   0.000000
    10  C    0.000000   0.000000   0.000000
    11  H   -0.000000  -0.000000  -0.000000
    12  N    0.000000  -0.000000  -0.000000
    13  N    0.000000  -0.000000  -0.000000
    14  B    0.000000  -0.000000  -0.000000
    15  F    0.000000  -0.000000  -0.000000
    16  F    0.000000  -0.000000   0.000000
    17  C    0.000008  -0.000024  -0.000024
    18  C    0.007631  -0.000503   0.000661
    19  C    0.007643   0.000670  -0.000505
    20  C   -0.107574   0.011805  -0.026928
    21  H   -0.000117   0.000011  -0.000020
    22  C   -0.107641  -0.027022   0.011818
    23  H   -0.000117  -0.000020   0.000011
    24  C    0.512388  -0.001177  -0.001278
    25  H   -0.010175  -0.000263   0.004508
    26  H   -0.010214   0.004518  -0.000262
    27  H   -0.000001  -0.000000  -0.000000
    28  H    0.000000  -0.000000  -0.000000
    29  H   -0.000001  -0.000000  -0.000000
    30  H    0.000000  -0.000000  -0.000000
    31  N    6.079903   0.369739   0.369737
    32  H    0.369739   0.494644  -0.029101
    33  H    0.369737  -0.029101   0.494697
 Mulliken charges:
               1
     1  C    0.029627
     2  C    0.029601
     3  C    0.095170
     4  C   -0.032255
     5  C   -0.086710
     6  C    0.097010
     7  H    0.063433
     8  C    0.097016
     9  C   -0.032237
    10  C   -0.086702
    11  H    0.063433
    12  N   -0.220521
    13  N   -0.220527
    14  B    0.244536
    15  F   -0.271426
    16  F   -0.273433
    17  C   -0.133551
    18  C    0.000761
    19  C    0.001516
    20  C   -0.046510
    21  H    0.025170
    22  C   -0.046176
    23  H    0.025350
    24  C    0.029630
    25  H    0.036317
    26  H    0.036413
    27  H    0.076064
    28  H    0.090383
    29  H    0.076054
    30  H    0.090379
    31  N   -0.111219
    32  H    0.176722
    33  H    0.176684
 Sum of Mulliken charges =  -0.00000
 Mulliken charges with hydrogens summed into heavy atoms:
               1
     1  C    0.029627
     2  C    0.029601
     3  C    0.095170
     4  C    0.043799
     5  C   -0.023277
     6  C    0.187389
     8  C    0.187399
     9  C    0.043827
    10  C   -0.023269
    12  N   -0.220521
    13  N   -0.220527
    14  B    0.244536
    15  F   -0.271426
    16  F   -0.273433
    17  C   -0.133551
    18  C    0.025931
    19  C    0.026866
    20  C   -0.010194
    22  C   -0.009763
    24  C    0.029630
    31  N    0.242186
 Electronic spatial extent (au):  <R**2>=           6203.3791
 Charge=             -0.0000 electrons
 Dipole moment (field-independent basis, Debye):
    X=             14.2969    Y=             -0.0001    Z=             -0.3378  Tot=             14.3008
 Quadrupole moment (field-independent basis, Debye-Ang):
   XX=            -86.3165   YY=           -103.9667   ZZ=           -119.8297
   XY=             -0.0074   XZ=              1.3242   YZ=             -0.0532
 Traceless Quadrupole moment (field-independent basis, Debye-Ang):
   XX=             17.0544   YY=             -0.5957   ZZ=            -16.4587
   XY=             -0.0074   XZ=              1.3242   YZ=             -0.0532
 Octapole moment (field-independent basis, Debye-Ang**2):
  XXX=            409.3847  YYY=             -0.0094  ZZZ=              1.4228  XYY=            -57.0005
  XXY=             -0.0210  XXZ=             -0.5711  XZZ=             42.6379  YZZ=             -0.0033
  YYZ=             -1.6989  XYZ=             -0.3212
 Hexadecapole moment (field-independent basis, Debye-Ang**3):
 XXXX=          -3455.0088 YYYY=          -1785.1361 ZZZZ=           -443.9075 XXXY=             -0.2458
 XXXZ=             14.5179 YYYX=             -0.0048 YYYZ=              0.3317 ZZZX=              3.3079
 ZZZY=             -0.4802 XXYY=          -1190.8637 XXZZ=           -899.2711 YYZZ=           -485.9525
 XXYZ=             -1.2111 YYXZ=              1.2809 ZZXY=             -0.0121
 N-N= 1.580272562191D+03 E-N=-5.415788854731D+03  KE= 9.571028506887D+02
 Unable to Open any file for archive entry.
 1\1\GINC-X1002C1S5B1N1\SP\RM062X\def2SVP\C15H12B1F2N3\1008721\10-Oct-2
 025\0\\# m062x/def2svp geom=check guess=read SCRF=(SMD, solvent=ethano
 l, NonEq=Read)\\BDP-NH2_ethanol_m062x_m062x_m062x\\0,1\C,0,-0.619573,1
 .230661,-0.02482\C,0,-0.619396,-1.23053,-0.027405\C,0,0.09279,0.000105
 ,-0.015291\C,0,-0.169924,2.570715,-0.048718\C,0,-1.321889,3.391935,-0.
 064267\C,0,-2.427294,2.546153,-0.048856\H,0,-1.351805,4.481031,-0.0875
 39\C,0,-2.4269,-2.546288,-0.053188\C,0,-0.169528,-2.570484,-0.052793\C
 ,0,-1.321357,-3.391868,-0.069588\H,0,-1.351091,-4.480946,-0.09391\N,0,
 -2.009013,1.241292,-0.024374\N,0,-2.008837,-1.241381,-0.027257\B,0,-2.
 917092,-0.000194,0.050143\F,0,-3.655205,-0.001637,1.256926\F,0,-3.8481
 73,0.000984,-1.01061\C,0,1.574783,0.000149,-0.003434\C,0,2.312039,0.00
 6553,-1.221561\C,0,2.288943,-0.005981,1.228456\C,0,3.686219,0.007326,-
 1.223117\H,0,1.767623,0.011495,-2.167546\C,0,3.662602,-0.006907,1.2557
 73\H,0,1.726691,-0.010685,2.163948\C,0,4.396489,0.000022,0.023255\H,0,
 4.254689,0.013226,-2.155167\H,0,4.214234,-0.012637,2.197961\H,0,0.8712
 66,-2.890132,-0.063337\H,0,-3.487985,-2.792314,-0.057209\H,0,0.870812,
 2.890536,-0.059656\H,0,-3.488421,2.791992,-0.053144\N,0,5.726341,-0.00
 0351,0.036858\H,0,6.241988,-0.005745,0.915609\H,0,6.260394,0.004719,-0
 .83083\\Version=ES64L-G16RevC.01\State=1-A\HF=-966.7152763\RMSD=2.619e
 -09\Dipole=5.6248149,-0.0000233,-0.1329071\Quadrupole=12.679562,-0.442
 906,-12.2366561,-0.0054964,0.9845298,-0.0395293\PG=C01 [X(C15H12B1F2N3
 )]\\@
 The archive entry for this job was punched.


 SEEN ON A WALL AT THE UNIVERSITY OF ILLINOIS AT CHICAGO CIRCLE:

 TO DO IS TO BE  -- SOCRATES
 TO BE IS TO DO  -- SARTRE
 OO BE DO BE DO  -- SINATRA
 Job cpu time:       0 days  0 hours 33 minutes 16.4 seconds.
 Elapsed time:       0 days  0 hours  1 minutes  6.9 seconds.
 File lengths (MBytes):  RWF=    498 Int=      0 D2E=      0 Chk=     25 Scr=      1
 Normal termination of Gaussian 16 at Fri Oct 10 16:44:53 2025.
