
                                 *****************
                                 * O   R   C   A *
                                 *****************

                                            #,                                       
                                            ###                                      
                                            ####                                     
                                            #####                                    
                                            ######                                   
                                           ########,                                 
                                     ,,################,,,,,                         
                               ,,#################################,,                 
                          ,,##########################################,,             
                       ,#########################################, ''#####,          
                    ,#############################################,,   '####,        
                  ,##################################################,,,,####,       
                ,###########''''           ''''###############################       
              ,#####''   ,,,,##########,,,,          '''####'''          '####       
            ,##' ,,,,###########################,,,                        '##       
           ' ,,###''''                  '''############,,,                           
         ,,##''                                '''############,,,,        ,,,,,,###''
      ,#''                                            '''#######################'''  
     '                                                          ''''####''''         
             ,#######,   #######,   ,#######,      ##                                
            ,#'     '#,  ##    ##  ,#'     '#,    #''#        ,####,   ,####,        
            ##       ##  ##   ,#'  ##            #'  '#       #'       #'  '#        
            ##       ##  #######   ##           ,######,      #####,   #    #        
            '#,     ,#'  ##    ##  '#,     ,#' ,#      #,     #,   #   #,  ,#        
             '#######'   ##     ##  '#######'  #'      '#     '####' # '####'        



                #########################################################
                #                        -***-                          #
                #          Department of theory and spectroscopy        #
                #                                                       #
                #                      Frank Neese                      #
                #                                                       #
                #     Directorship, Architecture, Infrastructure        #
                #                    SHARK, DRIVERS                     #
                #        Core code/Algorithms in most modules           #
                #                                                       #
                #        Max Planck Institute fuer Kohlenforschung      #
                #                Kaiser Wilhelm Platz 1                 #
                #                 D-45470 Muelheim/Ruhr                 #
                #                      Germany                          #
                #                                                       #
                #                  All rights reserved                  #
                #                        -***-                          #
                #########################################################


                         Program Version 6.0.1  -  RELEASE   -


 With contributions from (in alphabetic order):
[Max-Planck-Institut fuer Kohlenforschung]                               
  Daniel Aravena         : Magnetic Suceptibility                        
  Michael Atanasov       : Ab Initio Ligand Field Theory (pilot matlab implementation)
  Alexander A. Auer      : GIAO ZORA, VPT2 properties, NMR spectrum      
  Ute Becker             : All parallelization in ORCA, NUMFREQ, NUMCALC 
  Giovanni Bistoni       : ED, misc. LED, open-shell LED, HFLD           
  Martin Brehm           : Molecular dynamics                            
  Dmytro Bykov           : pre 5.0 version of the SCF Hessian            
  Marcos Casanova-Páez   : Triplet and SCS-CIS(D). UHF-(DLPNO)-IP/EA/STEOM-CCSD. UHF-CVS-IP/STEOM-CCSD   
  Vijay G. Chilkuri      : MRCI spin determinant printing, contributions to CSF-ICE 
  Pauline Colinet        : FMM embedding                                 
  Dipayan Datta          : RHF DLPNO-CCSD density                        
  Achintya Kumar Dutta   : EOM-CC, STEOM-CC                              
  Nicolas Foglia         : Exact transition moments, OPA infrastructure, MCD improvements    
  Dmitry Ganyushin       : Spin-Orbit,Spin-Spin,Magnetic field MRCI      
  Miquel Garcia-Rates    : C-PCM and meta-GGA Hessian, CCSD/C-PCM, Gaussian charge scheme 
  Tiago L. C. Gouveia    : GS-ROHF, GS-ROCIS                             
  Yang Guo               : DLPNO-NEVPT2, F12-NEVPT2, CIM, IAO-localization        
  Andreas Hansen         : Spin unrestricted coupled pair/coupled cluster methods 
  Ingolf Harden          : AUTO-CI MPn and infrastructure                
  Benjamin Helmich-Paris : MC-RPA, TRAH-(SCF,CASSCF), AVAS, COSX integrals, SCF dyn. polar. 
  Lee Huntington         : MR-EOM, pCC                                   
  Robert Izsak           : Overlap fitted RIJCOSX, COSX-SCS-MP3, EOM     
  Riya Kayal             : Wick's Theorem for AUTO-CI, AUTO-CI UHF-CCSDT 
  Emily Kempfer          : AUTO-CI, RHF CISDT and CCSDT                  
  Christian Kollmar      : KDIIS, OOCD, Brueckner-CCSD(T), CCSD density, CASPT2, CASPT2-K, improved NEVPT2 
  Axel Koslowski         : Symmetry handling                             
  Simone Kossmann        : meta-GGA functionals, TD-DFT gradient, OOMP2, (MP2 Hessian; deprecated post 5.0) 
  Lucas Lang             : DCDCAS                                        
  Marvin Lechner         : AUTO-CI (C++ implementation), FIC-MRCC        
  Spencer Leger          : CASSCF response                               
  Dagmar Lenk            : GEPOL surface, SMD, ORCA-2-JSON               
  Dimitrios Liakos       : Extrapolation schemes; Compound Job, initial MDCI parallelization 
  Dimitrios Manganas     : Further ROCIS development; embedding schemes. LFT, Crystal Embedding 
  Dimitrios Pantazis     : SARC Basis sets                               
  Anastasios Papadopoulos: AUTO-CI, single reference methods and gradients 
  Taras Petrenko         : pre 6.0 DFT Hessian and TD-DFT gradient, (ASA, deprecated), ECA, 1-Electron XAS/XES, NRVS 
  Peter Pinski           : DLPNO-MP2, DLPNO-MP2 Gradient                 
  Christoph Reimann      : Effective Core Potentials                     
  Marius Retegan         : Local ZFS, SOC                                
  Christoph Riplinger    : Optimizer, TS searches, QM/MM, DLPNO-CCSD(T), (RO)-DLPNO pert. Triples 
  Michael Roemelt        : Original ROCIS implementation                 
  Masaaki Saitow         : Open-shell DLPNO-CCSD energy and density      
  Barbara Sandhoefer     : DKH picture change effects                    
  Kantharuban Sivalingam : CASSCF convergence/infrastructure, NEVPT2 and variants, FIC-MRCI 
  Bernardo de Souza      : ESD, SOC TD-DFT                               
  Georgi L. Stoychev     : AutoAux, RI-MP2 NMR, DLPNO-MP2 response, X2C  
  Van Anh Tran           : RI-MP2 g-tensors                              
  Willem Van den Heuvel  : Paramagnetic NMR                              
  Zikuan Wang            : NOTCH, Electric field optimization            
  Frank Wennmohs         : Technical directorship and infrastructure     
  Hang Xu                : AUTO-CI-Response properties                   
                                                                         
[FACCTs GmbH]                                                            
  Markus Bursch, Miquel Garcia-Rates, Christoph Riplinger, Bernardo de Souza, Georgi L. Stoychev 
                                                                 
  APM, Basis sets (HGBS, AHGBS, def-TZVP (Ac-Lr), def2-XVPD (La-Lu)), CI-OPT, improved COSX, DLPNO-Multilevel,           
  DOCKER, DRACO, updates on ESD, GOAT, IRC, LR-CPCM, MBIS, meta-GGA TD-DFT gradient, ML-optimized integration grids, 
  MM, NACMEs, nearIR, NEB, NEB-TS, NL-DFT gradient (VV10), 2- and 3-layer-ONIOM, interface openCOSMO-RS, QMMM,   
  Crystal-QMMM, SF, symmetry and pop. for TD-DFT, r2SCAN hybrids, SOLVATOR                                   
                                                                         
[Other institutions]                                                     
  V. Asgeirsson          : NEB                                           
  Christoph Bannwarth    : sTDA-DFT, sTD-DFT, PBEh-3c, B97-3c, D3        
  Sebastian Ehlert       : rSCAN, r2SCAN, r2SCAN-3c, D4, dhf basis sets  
  Marvin Friede          : D4 for Fr, Ra, Ac-Lr                          
  Lars Goerigk           : TD-DFT with DH, B97 family of functionals     
  Stefan Grimme          : VdW corrections, initial TS optimization, DFT functionals, gCP, sTDA/sTD-DF 
  Waldemar Hujo          : DFT-NL                                        
  H. Jonsson             : NEB                                           
  Holger Kruse           : gCP                                           
  Marcel Mueller         : wB97X-3c, vDZP basis set                      
  Hagen Neugebauer       : wr2SCAN                                       
  Tobias Risthaus        : range-separated hybrid DFT                    
  Lukas Wittmann         : regularized MP2, r2SCAN double-hybrids, wr2SCAN        
                                                                         
We gratefully acknowledge several colleagues who have allowed us to      
interface, adapt or use parts of their codes:                            
  Ed Valeev, F. Pavosevic, A. Kumar             : LibInt (2-el integral package), F12 methods 
  Garnet Chan, S. Sharma, J. Yang, R. Olivares  : DMRG                   
  Ulf Ekstrom                                   : XCFun DFT Library      
  Mihaly Kallay                                 : mrcc  (arbitrary order and MRCC methods)
  Frank Weinhold                                : gennbo (NPA and NBO analysis)           
  Simon Mueller                                 : openCOSMO-RS                            
  Christopher J. Cramer and Donald G. Truhlar   : smd solvation model                     
  S Lehtola, MJT Oliveira, MAL Marques          : LibXC Library                           
  Liviu Ungur et al                             : ANISO software                          


 Your calculation uses the libint2 library for the computation of 2-el integrals
 For citations please refer to: http://libint.valeyev.net

 Your ORCA version has been built with support for libXC version: 6.2.2
 For citations please refer to: https://libxc.gitlab.io

 This ORCA versions uses:
   CBLAS   interface :  Fast vector & matrix operations
   LAPACKE interface :  Fast linear algebra routines
   SCALAPACK package :  Parallel linear algebra routines
   Shared memory     :  Shared parallel matrices
   BLAS/LAPACK       :  OpenBLAS 0.3.27  USE64BITINT DYNAMIC_ARCH NO_AFFINITY Zen SINGLE_THREADED
        Core in use  :  Zen
   Copyright (c) 2011-2014, The OpenBLAS Project


Your calculation utilizes the semiempirical GFN2-xTB method
Please cite in your paper:
C. Bannwarth, Ehlert S., S. Grimme,  J. Chem. Theory Comput., 15, (2019), 1652.
   

================================================================================

================================================================================
                                        WARNINGS
                       Please study these warnings very carefully!
================================================================================


WARNING: The total number of processors given is larger than MAXCORESOPT for GOAT!
  ===> : For the first optimization step, it will be reduced to that ammount (32).
         This can be changed by setting MAXCORESOPT inside %GOAT to a different number.

WARNING: Geometry Optimization
  ===> : Switching off AutoStart
         For restart on a previous wavefunction, please use MOREAD

WARNING: Found dipole moment calculation with XTB calculation
  ===> : Switching off dipole moment calculation


================================================================================
                                       INPUT FILE
================================================================================
NAME = Naph_GOAT.inp
|  1> ! XTB GOAT 
|  2> %PAL NPROCS 64 END
|  3> 
|  4> * xyz 0 1
|  5>    C        1.78446        1.78056       -0.00455
|  6>    C        0.84793        2.79986       -0.06859
|  7>    C       -0.50914        2.48422       -0.10461
|  8>    C       -0.97237        1.14670       -0.06972
|  9>    C        0.00764        0.11455       -0.03097
| 10>    C        1.36681        0.44291        0.00862
| 11>    C       -2.36162        0.80659       -0.08016
| 12>    C       -2.71538       -0.54830       -0.14606
| 13>    C       -1.74832       -1.55161       -0.11062
| 14>    C       -0.39364       -1.22037       -0.04269
| 15>    C        0.61321       -2.30612       -0.00580
| 16>    N        1.96513       -1.94224        0.01749
| 17>    C        2.39859       -0.61927        0.05827
| 18>    C        2.90168       -3.07857        0.04658
| 19>    C        4.40484       -2.79757        0.02815
| 20>    C        5.23705       -4.07978        0.01557
| 21>    C        6.72406       -3.75432        0.01462
| 22>    O        3.56896       -0.25575        0.13641
| 23>    O        0.22545       -3.47325        0.00877
| 24>    N       -3.32961        1.82935       -0.12736
| 25>    C       -4.75607        1.51182        0.00329
| 26>    C       -5.58971        2.81448        0.03791
| 27>    N       -7.05241        2.61470        0.07086
| 28>    C       -7.49005        1.91082        1.27714
| 29>    C       -7.73277        3.91010       -0.02082
| 30>    H        2.84390        2.02988        0.02243
| 31>    H        1.17055        3.83754       -0.09747
| 32>    H       -1.21080        3.31151       -0.18249
| 33>    H       -3.75443       -0.85813       -0.21120
| 34>    H       -2.06182       -2.59383       -0.14073
| 35>    H        2.65233       -3.71390       -0.81421
| 36>    H        2.65920       -3.66753        0.94126
| 37>    H        4.68149       -2.21828        0.91683
| 38>    H        4.66008       -2.20679       -0.85963
| 39>    H        4.99583       -4.67601       -0.87170
| 40>    H        5.00073       -4.68938        0.89513
| 41>    H        6.99566       -3.16782       -0.86935
| 42>    H        7.31758       -4.67325        0.00930
| 43>    H        6.99875       -3.17677        0.90361
| 44>    H       -3.05679        2.60408        0.47262
| 45>    H       -4.91523        0.94813        0.92889
| 46>    H       -5.08360        0.90421       -0.84845
| 47>    H       -5.33446        3.38834       -0.86355
| 48>    H       -5.26813        3.42468        0.89327
| 49>    H       -7.11063        0.88431        1.29308
| 50>    H       -8.58259        1.82557        1.29930
| 51>    H       -7.16674        2.41863        2.19275
| 52>    H       -7.45365        4.43003       -0.94400
| 53>    H       -7.49540        4.56159        0.82832
| 54>    H       -8.81934        3.77284       -0.05690
| 55> *
| 56> 
| 57> 
| 58>                          ****END OF INPUT****
================================================================================

                       *****************************
                       * Geometry Optimization Run *
                       *****************************


                       *********************************
                       *              GOAT             *
                       * Global Optimization Algorithm *
                       *********************************

Geometry optimization settings:
Update method            Update   .... BFGS
Choice of coordinates    CoordSys .... (2022) Redundant Internals
Initial Hessian          InHess   .... Almloef's Model
Max. no of cycles        MaxIter  .... 150

Convergence Tolerances:
Energy Change            TolE     ....  5.0000e-06 Eh
Max. Gradient            TolMAXG  ....  3.0000e-04 Eh/bohr
RMS Gradient             TolRMSG  ....  1.0000e-04 Eh/bohr
Max. Displacement        TolMAXD  ....  4.0000e-03 bohr
RMS Displacement         TolRMSD  ....  2.0000e-03 bohr
Strict Convergence                .... True

------------------------------------------------------------------------------
                        ORCA OPTIMIZATION COORDINATE SETUP
------------------------------------------------------------------------------

The optimization will be done in redundant internal coordinates (2022)
Making redundant internal coordinates   ...  (2022 redundants) done
Evaluating the initial hessian          ...  (Almloef) done
Evaluating the coordinates              ...  done
Calculating the B-matrix                .... done
Calculating the G-matrix                .... done
Diagonalizing the G-matrix              .... done
Small eigenvalue found = 1.258e-03
Small eigenvalue found = 3.868e-03
Small eigenvalue found = 4.659e-03
Small eigenvalue found = 1.294e-02
Small eigenvalue found = 1.446e-02
Small eigenvalue found = 1.827e-02
Small eigenvalue found = 2.620e-02
The first mode is                       ....  114
The number of degrees of freedom        ....  144

    -----------------------------------------------------------------
                    Redundant Internal Coordinates


    -----------------------------------------------------------------
         Definition                    Initial Value    Approx d2E/dq
    -----------------------------------------------------------------
      1. B(C   1,C   0)                  1.3857         0.634747   
      2. B(C   2,C   1)                  1.3938         0.616227   
      3. B(C   3,C   2)                  1.4159         0.568100   
      4. B(C   4,C   3)                  1.4238         0.551805   
      5. B(C   5,C   4)                  1.3988         0.604850   
      6. B(C   5,C   0)                  1.4014         0.599178   
      7. B(C   6,C   3)                  1.4303         0.538790   
      8. B(C   7,C   6)                  1.4019         0.598156   
      9. B(C   8,C   7)                  1.3939         0.615799   
     10. B(C   9,C   8)                  1.3962         0.610632   
     11. B(C   9,C   4)                  1.3940         0.615732   
     12. B(C  10,C   9)                  1.4812         0.446921   
     13. B(N  11,C  10)                  1.4002         0.538961   
     14. B(C  12,N  11)                  1.3928         0.553937   
     15. B(C  12,C   5)                  1.4816         0.446201   
     16. B(C  13,N  11)                  1.4728         0.412792   
     17. B(C  14,C  13)                  1.5293         0.374522   
     18. B(C  15,C  14)                  1.5287         0.375421   
     19. B(C  16,C  15)                  1.5222         0.384420   
     20. B(O  17,C  12)                  1.2280         1.014644   
     21. B(O  18,C  10)                  1.2299         1.007475   
     22. B(N  19,C   6)                  1.4090         0.521877   
     23. B(C  20,N  19)                  1.4672         0.421409   
     24. B(C  21,C  20)                  1.5470         0.351013   
     25. B(N  22,C  21)                  1.4766         0.407037   
     26. B(C  23,N  22)                  1.4636         0.427043   
     27. B(C  24,N  22)                  1.4661         0.423169   
     28. B(H  25,C   0)                  1.0887         0.361803   
     29. B(H  26,C   1)                  1.0871         0.364012   
     30. B(H  27,C   2)                  1.0876         0.363334   
     31. B(H  28,C   7)                  1.0862         0.365142   
     32. B(H  29,C   8)                  1.0888         0.361736   
     33. B(H  30,C  13)                  1.0985         0.348985   
     34. B(H  31,C  13)                  1.0982         0.349368   
     35. B(H  32,C  14)                  1.0963         0.351867   
     36. B(H  33,C  14)                  1.0965         0.351598   
     37. B(H  34,C  15)                  1.0959         0.352421   
     38. B(H  35,C  15)                  1.0959         0.352327   
     39. B(H  36,C  16)                  1.0951         0.353471   
     40. B(H  37,C  16)                  1.0940         0.354912   
     41. B(H  38,C  16)                  1.0951         0.353370   
     42. B(H  39,N  19)                  1.0172         0.421476   
     43. B(H  40,C  20)                  1.0954         0.353079   
     44. B(H  41,C  20)                  1.0963         0.351830   
     45. B(H  42,C  21)                  1.0987         0.348798   
     46. B(H  43,C  21)                  1.0988         0.348623   
     47. B(H  44,C  23)                  1.0945         0.354192   
     48. B(H  45,C  23)                  1.0961         0.352140   
     49. B(H  46,C  23)                  1.0958         0.352530   
     50. B(H  47,C  24)                  1.0957         0.352675   
     51. B(H  48,C  24)                  1.0963         0.351892   
     52. B(H  49,C  24)                  1.0958         0.352509   
     53. A(C   5,C   0,H  25)          120.5549         0.351156   
     54. A(C   1,C   0,H  25)          119.3651         0.354600   
     55. A(C   1,C   0,C   5)          120.0754         0.433235   
     56. A(C   0,C   1,H  26)          120.1866         0.354966   
     57. A(C   2,C   1,H  26)          120.2957         0.353190   
     58. A(C   0,C   1,C   2)          119.5163         0.435428   
     59. A(C   3,C   2,H  27)          120.6148         0.348262   
     60. A(C   1,C   2,C   3)          122.1303         0.426838   
     61. A(C   1,C   2,H  27)          117.2429         0.353078   
     62. A(C   2,C   3,C   4)          117.4049         0.418500   
     63. A(C   2,C   3,C   6)          122.8346         0.416724   
     64. A(C   4,C   3,C   6)          119.7594         0.414573   
     65. A(C   5,C   4,C   9)          120.3139         0.431603   
     66. A(C   3,C   4,C   9)          119.7251         0.424559   
     67. A(C   3,C   4,C   5)          119.9594         0.423208   
     68. A(C   4,C   5,C  12)          120.6170         0.407519   
     69. A(C   0,C   5,C  12)          118.4937         0.406841   
     70. A(C   0,C   5,C   4)          120.8885         0.429496   
     71. A(C   3,C   6,C   7)          118.3768         0.420571   
     72. A(C   3,C   6,N  19)          119.6647         0.407844   
     73. A(C   7,C   6,N  19)          121.7771         0.415477   
     74. A(C   6,C   7,C   8)          121.2907         0.430750   
     75. A(C   8,C   7,H  28)          117.3777         0.353334   
     76. A(C   6,C   7,H  28)          121.3251         0.351600   
     77. A(C   9,C   8,H  29)          120.5180         0.352271   
     78. A(C   7,C   8,C   9)          120.2377         0.432350   
     79. A(C   7,C   8,H  29)          119.2438         0.352774   
     80. A(C   4,C   9,C   8)          120.4571         0.432342   
     81. A(C   4,C   9,C  10)          120.4028         0.408924   
     82. A(C   8,C   9,C  10)          119.1324         0.408322   
     83. A(N  11,C  10,O  18)          123.4214         0.456010   
     84. A(C   9,C  10,N  11)          117.7894         0.396871   
     85. A(C   9,C  10,O  18)          118.7884         0.443698   
     86. A(C  12,N  11,C  13)          122.3022         0.390763   
     87. A(C  10,N  11,C  13)          114.4424         0.388896   
     88. A(C  10,N  11,C  12)          123.2176         0.409539   
     89. A(N  11,C  12,O  17)          125.4269         0.458887   
     90. A(C   5,C  12,O  17)          116.9751         0.444138   
     91. A(C   5,C  12,N  11)          117.5976         0.398673   
     92. A(H  30,C  13,H  31)          106.1454         0.288044   
     93. A(C  14,C  13,H  31)          108.9880         0.322847   
     94. A(C  14,C  13,H  30)          108.6585         0.322789   
     95. A(N  11,C  13,H  30)          106.6423         0.326028   
     96. A(N  11,C  13,C  14)          118.8823         0.367471   
     97. A(N  11,C  13,H  31)          106.8249         0.326086   
     98. A(H  32,C  14,H  33)          108.2327         0.288703   
     99. A(C  15,C  14,H  33)          108.5744         0.323311   
    100. A(C  13,C  14,H  33)          109.7277         0.323184   
    101. A(C  15,C  14,H  32)          108.2104         0.323352   
    102. A(C  13,C  14,H  32)          109.5942         0.323224   
    103. A(C  13,C  14,C  15)          112.4003         0.363815   
    104. A(C  16,C  15,H  35)          109.2733         0.324681   
    105. A(C  14,C  15,H  35)          110.0331         0.323421   
    106. A(C  16,C  15,H  34)          109.3203         0.324695   
    107. A(C  14,C  15,H  34)          110.0711         0.323435   
    108. A(C  14,C  15,C  16)          110.6393         0.365443   
    109. A(H  34,C  15,H  35)          107.4395         0.288867   
    110. A(H  37,C  16,H  38)          108.1114         0.289320   
    111. A(H  36,C  16,H  38)          108.0963         0.289136   
    112. A(H  36,C  16,H  37)          108.1442         0.289333   
    113. A(C  15,C  16,H  37)          110.5120         0.325071   
    114. A(C  15,C  16,H  36)          110.9348         0.324854   
    115. A(C  15,C  16,H  38)          110.9331         0.324839   
    116. A(C  20,N  19,H  39)          111.9058         0.334635   
    117. A(C   6,N  19,H  39)          110.4167         0.346816   
    118. A(C   6,N  19,C  20)          120.5209         0.388114   
    119. A(C  21,C  20,H  41)          108.8501         0.319807   
    120. A(H  40,C  20,H  41)          109.1399         0.288888   
    121. A(N  19,C  20,H  41)          109.9512         0.327577   
    122. A(C  21,C  20,H  40)          109.6415         0.319992   
    123. A(N  19,C  20,H  40)          109.1406         0.327768   
    124. A(N  19,C  20,C  21)          110.1011         0.364701   
    125. A(H  42,C  21,H  43)          106.2993         0.287924   
    126. A(N  22,C  21,H  43)          110.3441         0.325220   
    127. A(C  20,C  21,H  43)          109.1072         0.319329   
    128. A(N  22,C  21,H  42)          108.6088         0.325247   
    129. A(C  20,C  21,H  42)          107.2339         0.319356   
    130. A(C  20,C  21,N  22)          114.8581         0.362545   
    131. A(C  23,N  22,C  24)          109.7378         0.375110   
    132. A(C  21,N  22,C  24)          109.8007         0.372019   
    133. A(C  21,N  22,C  23)          112.3121         0.372604   
    134. A(H  45,C  23,H  46)          108.2549         0.288857   
    135. A(H  44,C  23,H  46)          108.6740         0.289120   
    136. A(N  22,C  23,H  46)          112.1838         0.328402   
    137. A(H  44,C  23,H  45)          105.8011         0.289070   
    138. A(N  22,C  23,H  45)          110.6170         0.328343   
    139. A(N  22,C  23,H  44)          111.0632         0.328658   
    140. A(H  48,C  24,H  49)          108.3392         0.288823   
    141. A(H  47,C  24,H  49)          106.5170         0.288923   
    142. A(N  22,C  24,H  49)          110.5817         0.327906   
    143. A(H  47,C  24,H  48)          108.3890         0.288844   
    144. A(N  22,C  24,H  48)          112.0969         0.327811   
    145. A(N  22,C  24,H  47)          110.7174         0.327931   
    146. D(C   2,C   1,C   0,C   5)      0.7095         0.027963   
    147. D(C   2,C   1,C   0,H  25)    179.9368         0.027963   
    148. D(H  26,C   1,C   0,H  25)      0.3604         0.027963   
    149. D(H  26,C   1,C   0,C   5)   -178.8669         0.027963   
    150. D(C   3,C   2,C   1,C   0)      0.3931         0.026257   
    151. D(H  27,C   2,C   1,H  26)      1.2268         0.026257   
    152. D(C   3,C   2,C   1,H  26)    179.9691         0.026257   
    153. D(H  27,C   2,C   1,C   0)   -178.3492         0.026257   
    154. D(C   4,C   3,C   2,C   1)     -1.6121         0.022133   
    155. D(C   6,C   3,C   2,C   1)    178.7724         0.022133   
    156. D(C   6,C   3,C   2,H  27)     -2.5269         0.022133   
    157. D(C   4,C   3,C   2,H  27)    177.0886         0.022133   
    158. D(C   5,C   4,C   3,C   2)      1.7555         0.020835   
    159. D(C   5,C   4,C   3,C   6)   -178.6167         0.020835   
    160. D(C   9,C   4,C   3,C   2)   -177.7721         0.020835   
    161. D(C   9,C   4,C   3,C   6)      1.8557         0.020835   
    162. D(C  12,C   5,C   4,C   9)     -0.8817         0.025243   
    163. D(C   0,C   5,C   4,C   9)    178.7919         0.025243   
    164. D(C   0,C   5,C   4,C   3)     -0.7328         0.025243   
    165. D(C  12,C   5,C   0,H  25)     -0.0744         0.024746   
    166. D(C   4,C   5,C   0,H  25)   -179.7548         0.024746   
    167. D(C  12,C   5,C   4,C   3)    179.5935         0.025243   
    168. D(C   4,C   5,C   0,C   1)     -0.5369         0.024746   
    169. D(C  12,C   5,C   0,C   1)    179.1435         0.024746   
    170. D(N  19,C   6,C   3,C   4)   -179.5863         0.019833   
    171. D(N  19,C   6,C   3,C   2)      0.0205         0.019833   
    172. D(C   7,C   6,C   3,C   4)     -4.3939         0.019833   
    173. D(C   7,C   6,C   3,C   2)    175.2128         0.019833   
    174. D(H  28,C   7,C   6,C   3)   -176.6328         0.024657   
    175. D(C   8,C   7,C   6,N  19)    179.4136         0.024657   
    176. D(C   8,C   7,C   6,C   3)      4.3280         0.024657   
    177. D(H  28,C   7,C   6,N  19)     -1.5473         0.024657   
    178. D(H  29,C   8,C   7,H  28)     -0.4843         0.026219   
    179. D(H  29,C   8,C   7,C   6)    178.5914         0.026219   
    180. D(C   9,C   8,C   7,H  28)    179.2613         0.026219   
    181. D(C   9,C   8,C   7,C   6)     -1.6630         0.026219   
    182. D(C  10,C   9,C   8,H  29)     -0.2765         0.025755   
    183. D(C   4,C   9,C   8,H  29)    178.7219         0.025755   
    184. D(C   4,C   9,C   8,C   7)     -1.0204         0.025755   
    185. D(C  10,C   9,C   4,C   5)      0.3405         0.026213   
    186. D(C  10,C   9,C   4,C   3)    179.8664         0.026213   
    187. D(C  10,C   9,C   8,C   7)    179.9812         0.025755   
    188. D(C   8,C   9,C   4,C   5)   -178.6451         0.026213   
    189. D(C   8,C   9,C   4,C   3)      0.8807         0.026213   
    190. D(O  18,C  10,C   9,C   8)     -2.3877         0.013619   
    191. D(O  18,C  10,C   9,C   4)    178.6133         0.013619   
    192. D(N  11,C  10,C   9,C   8)    177.9279         0.013619   
    193. D(N  11,C  10,C   9,C   4)     -1.0711         0.013619   
    194. D(C  13,N  11,C  10,O  18)      0.6324         0.023104   
    195. D(C  13,N  11,C  10,C   9)   -179.6991         0.023104   
    196. D(C  12,N  11,C  10,O  18)   -177.1760         0.023104   
    197. D(C  12,N  11,C  10,C   9)      2.4926         0.023104   
    198. D(O  17,C  12,N  11,C  13)     -0.8827         0.024476   
    199. D(C   5,C  12,N  11,C  13)    179.3551         0.024476   
    200. D(C   5,C  12,N  11,C  10)     -3.0055         0.024476   
    201. D(O  17,C  12,C   5,C   4)   -177.6316         0.013576   
    202. D(O  17,C  12,C   5,C   0)      2.6871         0.013576   
    203. D(O  17,C  12,N  11,C  10)    176.7567         0.024476   
    204. D(N  11,C  12,C   5,C   4)      2.1510         0.013576   
    205. D(N  11,C  12,C   5,C   0)   -177.5303         0.013576   
    206. D(H  30,C  13,N  11,C  10)     54.9448         0.014534   
    207. D(C  14,C  13,N  11,C  12)     -4.1150         0.014534   
    208. D(C  14,C  13,N  11,C  10)    178.0542         0.014534   
    209. D(H  31,C  13,N  11,C  10)    -58.2341         0.014534   
    210. D(H  30,C  13,N  11,C  12)   -127.2243         0.014534   
    211. D(H  32,C  14,C  13,H  31)    -61.1090         0.011197   
    212. D(H  32,C  14,C  13,H  30)   -176.3599         0.011197   
    213. D(H  32,C  14,C  13,N  11)     61.5336         0.011197   
    214. D(C  15,C  14,C  13,H  31)     59.2564         0.011197   
    215. D(C  15,C  14,C  13,H  30)    -55.9945         0.011197   
    216. D(C  15,C  14,C  13,N  11)   -178.1009         0.011197   
    217. D(H  34,C  15,C  14,H  33)    -61.8190         0.011248   
    218. D(H  34,C  15,C  14,H  32)   -179.0787         0.011248   
    219. D(H  34,C  15,C  14,C  13)     59.7598         0.011248   
    220. D(C  16,C  15,C  14,H  33)     59.1131         0.011248   
    221. D(C  16,C  15,C  14,H  32)    -58.1466         0.011248   
    222. D(C  16,C  15,C  14,C  13)   -179.3081         0.011248   
    223. D(H  37,C  16,C  15,H  35)     58.4951         0.011764   
    224. D(H  37,C  16,C  15,H  34)    -58.8296         0.011764   
    225. D(H  37,C  16,C  15,C  14)    179.7937         0.011764   
    226. D(H  36,C  16,C  15,H  35)    178.4365         0.011764   
    227. D(H  36,C  16,C  15,H  34)     61.1118         0.011764   
    228. D(H  36,C  16,C  15,C  14)    -60.2649         0.011764   
    229. D(H  39,N  19,C   6,C   7)    144.4059         0.021599   
    230. D(H  39,N  19,C   6,C   3)    -40.5703         0.021599   
    231. D(C  20,N  19,C   6,C   7)     11.4401         0.021599   
    232. D(C  20,N  19,C   6,C   3)   -173.5362         0.021599   
    233. D(H  41,C  20,N  19,C   6)    -64.8354         0.015142   
    234. D(H  40,C  20,N  19,H  39)    -77.4917         0.015142   
    235. D(H  40,C  20,N  19,C   6)     54.8484         0.015142   
    236. D(C  21,C  20,N  19,H  39)     42.8995         0.015142   
    237. D(C  21,C  20,N  19,C   6)    175.2396         0.015142   
    238. D(H  42,C  21,C  20,H  41)    -65.5384         0.009922   
    239. D(H  42,C  21,C  20,H  40)    175.1401         0.009922   
    240. D(H  42,C  21,C  20,N  19)     55.0513         0.009922   
    241. D(N  22,C  21,C  20,H  41)     55.2543         0.009922   
    242. D(N  22,C  21,C  20,H  40)    -64.0672         0.009922   
    243. D(N  22,C  21,C  20,N  19)    175.8441         0.009922   
    244. D(C  24,N  22,C  21,H  42)    -54.8702         0.014137   
    245. D(C  24,N  22,C  21,C  20)   -174.9055         0.014137   
    246. D(C  23,N  22,C  21,H  43)    -61.1166         0.014137   
    247. D(C  23,N  22,C  21,H  42)   -177.2642         0.014137   
    248. D(C  23,N  22,C  21,C  20)     62.7006         0.014137   
    249. D(H  46,C  23,N  22,C  21)     55.9491         0.015548   
    250. D(H  45,C  23,N  22,C  24)     54.5063         0.015548   
    251. D(H  45,C  23,N  22,C  21)    176.9358         0.015548   
    252. D(H  44,C  23,N  22,C  24)    171.6777         0.015548   
    253. D(H  44,C  23,N  22,C  21)    -65.8928         0.015548   
    254. D(H  49,C  24,N  22,C  21)    176.6740         0.015268   
    255. D(H  48,C  24,N  22,C  23)     61.5934         0.015268   
    256. D(H  48,C  24,N  22,C  21)    -62.3156         0.015268   
    257. D(H  47,C  24,N  22,C  23)   -177.2375         0.015268   
    258. D(H  47,C  24,N  22,C  21)     58.8536         0.015268   
    -----------------------------------------------------------------

Number of atoms                         .... 50
Number of degrees of freedom            .... 258


         *************************************************************
         *                GEOMETRY OPTIMIZATION CYCLE   1            *
         *************************************************************
---------------------------------
CARTESIAN COORDINATES (ANGSTROEM)
---------------------------------
  C     1.784460    1.780560   -0.004550
  C     0.847930    2.799860   -0.068590
  C    -0.509140    2.484220   -0.104610
  C    -0.972370    1.146700   -0.069720
  C     0.007640    0.114550   -0.030970
  C     1.366810    0.442910    0.008620
  C    -2.361620    0.806590   -0.080160
  C    -2.715380   -0.548300   -0.146060
  C    -1.748320   -1.551610   -0.110620
  C    -0.393640   -1.220370   -0.042690
  C     0.613210   -2.306120   -0.005800
  N     1.965130   -1.942240    0.017490
  C     2.398590   -0.619270    0.058270
  C     2.901680   -3.078570    0.046580
  C     4.404840   -2.797570    0.028150
  C     5.237050   -4.079780    0.015570
  C     6.724060   -3.754320    0.014620
  O     3.568960   -0.255750    0.136410
  O     0.225450   -3.473250    0.008770
  N    -3.329610    1.829350   -0.127360
  C    -4.756070    1.511820    0.003290
  C    -5.589710    2.814480    0.037910
  N    -7.052410    2.614700    0.070860
  C    -7.490050    1.910820    1.277140
  C    -7.732770    3.910100   -0.020820
  H     2.843900    2.029880    0.022430
  H     1.170550    3.837540   -0.097470
  H    -1.210800    3.311510   -0.182490
  H    -3.754430   -0.858130   -0.211200
  H    -2.061820   -2.593830   -0.140730
  H     2.652330   -3.713900   -0.814210
  H     2.659200   -3.667530    0.941260
  H     4.681490   -2.218280    0.916830
  H     4.660080   -2.206790   -0.859630
  H     4.995830   -4.676010   -0.871700
  H     5.000730   -4.689380    0.895130
  H     6.995660   -3.167820   -0.869350
  H     7.317580   -4.673250    0.009300
  H     6.998750   -3.176770    0.903610
  H    -3.056790    2.604080    0.472620
  H    -4.915230    0.948130    0.928890
  H    -5.083600    0.904210   -0.848450
  H    -5.334460    3.388340   -0.863550
  H    -5.268130    3.424680    0.893270
  H    -7.110630    0.884310    1.293080
  H    -8.582590    1.825570    1.299300
  H    -7.166740    2.418630    2.192750
  H    -7.453650    4.430030   -0.944000
  H    -7.495400    4.561590    0.828320
  H    -8.819340    3.772840   -0.056900

----------------------------
CARTESIAN COORDINATES (A.U.)
----------------------------
  NO LB    ZA    FRAG    MASS        X           Y           Z
   0 C   6.0000    1    12.011    3.372141    3.364771   -0.008598
   1 C   6.0000    1    12.011    1.602355    5.290969   -0.129616
   2 C   6.0000    1    12.011   -0.962135    4.694495   -0.197684
   3 C   6.0000    1    12.011   -1.837513    2.166949   -0.131752
   4 C   6.0000    1    12.011    0.014438    0.216468   -0.058525
   5 C   6.0000    1    12.011    2.582897    0.836979    0.016289
   6 C   6.0000    1    12.011   -4.462815    1.524234   -0.151480
   7 C   6.0000    1    12.011   -5.131325   -1.036137   -0.276013
   8 C   6.0000    1    12.011   -3.303846   -2.932118   -0.209042
   9 C   6.0000    1    12.011   -0.743872   -2.306165   -0.080672
  10 C   6.0000    1    12.011    1.158799   -4.357935   -0.010960
  11 N   7.0000    1    14.007    3.713558   -3.670302    0.033051
  12 C   6.0000    1    12.011    4.532678   -1.170251    0.110114
  13 C   6.0000    1    12.011    5.483381   -5.817654    0.088023
  14 C   6.0000    1    12.011    8.323941   -5.286641    0.053196
  15 C   6.0000    1    12.011    9.896590   -7.709667    0.029423
  16 C   6.0000    1    12.011   12.706632   -7.094637    0.027628
  17 O   8.0000    1    15.999    6.744357   -0.483297    0.257778
  18 O   8.0000    1    15.999    0.426039   -6.563491    0.016573
  19 N   7.0000    1    14.007   -6.292051    3.456971   -0.240676
  20 C   6.0000    1    12.011   -8.987670    2.856926    0.006217
  21 C   6.0000    1    12.011  -10.563021    5.318596    0.071640
  22 N   7.0000    1    14.007  -13.327123    4.941067    0.133906
  23 C   6.0000    1    12.011  -14.154143    3.610926    2.413445
  24 C   6.0000    1    12.011  -14.612818    7.389018   -0.039344
  25 H   1.0000    1     1.008    5.374192    3.835917    0.042387
  26 H   1.0000    1     1.008    2.212019    7.251900   -0.184192
  27 H   1.0000    1     1.008   -2.288080    6.257847   -0.344856
  28 H   1.0000    1     1.008   -7.094844   -1.621631   -0.399110
  29 H   1.0000    1     1.008   -3.896275   -4.901628   -0.265941
  30 H   1.0000    1     1.008    5.012177   -7.018254   -1.538634
  31 H   1.0000    1     1.008    5.025160   -6.930627    1.778724
  32 H   1.0000    1     1.008    8.846734   -4.191942    1.732558
  33 H   1.0000    1     1.008    8.806275   -4.170229   -1.624465
  34 H   1.0000    1     1.008    9.440751   -8.836378   -1.647274
  35 H   1.0000    1     1.008    9.450010   -8.861644    1.691551
  36 H   1.0000    1     1.008   13.219882   -5.986312   -1.642833
  37 H   1.0000    1     1.008   13.828222   -8.831163    0.017574
  38 H   1.0000    1     1.008   13.225721   -6.003225    1.707575
  39 H   1.0000    1     1.008   -5.776496    4.920998    0.893122
  40 H   1.0000    1     1.008   -9.288439    1.791706    1.755348
  41 H   1.0000    1     1.008   -9.606612    1.708709   -1.603338
  42 H   1.0000    1     1.008  -10.080668    6.403035   -1.631873
  43 H   1.0000    1     1.008   -9.955323    6.471707    1.688036
  44 H   1.0000    1     1.008  -13.437143    1.671104    2.443567
  45 H   1.0000    1     1.008  -16.218745    3.449827    2.455321
  46 H   1.0000    1     1.008  -13.543176    4.570548    4.143697
  47 H   1.0000    1     1.008  -14.085357    8.371543   -1.783901
  48 H   1.0000    1     1.008  -14.164253    8.620156    1.565298
  49 H   1.0000    1     1.008  -16.666137    7.129634   -0.107525

      -----------------------------------------------------------      
     |                   =====================                   |     
     |                           x T B                           |     
     |                   =====================                   |     
     |                         S. Grimme                         |     
     |          Mulliken Center for Theoretical Chemistry        |     
     |                    University of Bonn                     |     
      -----------------------------------------------------------      

   * xtb version 6.7.1 (edcfbbe) compiled by 'albert@albert-system' on 2024-07-22

   xtb is free software: you can redistribute it and/or modify it under
   the terms of the GNU Lesser General Public License as published by
   the Free Software Foundation, either version 3 of the License, or
   (at your option) any later version.
   
   xtb is distributed in the hope that it will be useful,
   but WITHOUT ANY WARRANTY; without even the implied warranty of
   MERCHANTABILITY or FITNESS FOR A PARTICULAR PURPOSE.  See the
   GNU Lesser General Public License for more details.
   
   Cite this work as:
   * C. Bannwarth, E. Caldeweyher, S. Ehlert, A. Hansen, P. Pracht,
     J. Seibert, S. Spicher, S. Grimme, WIREs Comput. Mol. Sci., 2020, 11,
     e01493. DOI: 10.1002/wcms.1493
   
   for GFN2-xTB:
   * C. Bannwarth, S. Ehlert and S. Grimme., J. Chem. Theory Comput., 2019,
     15, 1652-1671. DOI: 10.1021/acs.jctc.8b01176
   for GFN1-xTB:
   * S. Grimme, C. Bannwarth, P. Shushkov, J. Chem. Theory Comput., 2017,
     13, 1989-2009. DOI: 10.1021/acs.jctc.7b00118
   for GFN0-xTB:
   * P. Pracht, E. Caldeweyher, S. Ehlert, S. Grimme, ChemRxiv, 2019, preprint.
     DOI: 10.26434/chemrxiv.8326202.v1
   for GFN-FF:
   * S. Spicher and S. Grimme, Angew. Chem. Int. Ed., 2020, 59, 15665-15673.
     DOI: 10.1002/anie.202004239
   
   for ALPB and GBSA implicit solvation:
   * S. Ehlert, M. Stahn, S. Spicher, S. Grimme, J. Chem. Theory Comput.,
     2021, 17, 4250-4261. DOI: 10.1021/acs.jctc.1c00471
   
   for ddCOSMO and CPCM-X implicit solvation:
   * M. Stahn, S. Ehlert, S. Grimme, J. Phys. Chem. A,
     2023, XX, XXXX-XXXX. DOI: 10.1021/acs.jpca.3c04382
   
   for DFT-D4:
   * E. Caldeweyher, C. Bannwarth and S. Grimme, J. Chem. Phys., 2017,
     147, 034112. DOI: 10.1063/1.4993215
   * E. Caldeweyher, S. Ehlert, A. Hansen, H. Neugebauer, S. Spicher,
     C. Bannwarth and S. Grimme, J. Chem. Phys., 2019, 150, 154122.
     DOI: 10.1063/1.5090222
   * E. Caldeweyher, J.-M. Mewes, S. Ehlert and S. Grimme, Phys. Chem. Chem. Phys.
     2020, 22, 8499-8512. DOI: 10.1039/D0CP00502A
   
   for sTDA-xTB:
   * S. Grimme and C. Bannwarth, J. Chem. Phys., 2016, 145, 054103.
     DOI: 10.1063/1.4959605
   
   in the mass-spec context:
   * V. Asgeirsson, C. Bauer and S. Grimme, Chem. Sci., 2017, 8, 4879.
     DOI: 10.1039/c7sc00601b
   * J. Koopman and S. Grimme, ACS Omega 2019, 4, 12, 15120-15133.
     DOI: 10.1021/acsomega.9b02011
   
   for metadynamics refer to:
   * S. Grimme, J. Chem. Theory Comput., 2019, 155, 2847-2862
     DOI: 10.1021/acs.jctc.9b00143
   
   for SPH calculations refer to:
   * S. Spicher and S. Grimme, J. Chem. Theory Comput., 2021, 17, 1701-1714
     DOI: 10.1021/acs.jctc.0c01306
   
   for ONIOM refer to:
   * C. Plett, A. Katbashev, S. Ehlert, S. Grimme, M. Bursch,
     Phys. Chem. Chem. Phys., 2023, 25, 17860-17868. DOI: 10.1039/D3CP02178E
   
   for DIPRO refer to:
   * J. Kohn, N. Gildemeister, S. Grimme, D. Fazzi, A. Hansen,
     J. Chem. Phys., 2023, just accepted.
   
   for PTB refer to:
   * S. Grimme, M. Mueller, A. Hansen, J. Chem. Phys., 2023, 158, 124111.
     DOI: 10.1063/5.0137838
   
   with help from (in alphabetical order)
   P. Atkinson, C. Bannwarth, F. Bohle, G. Brandenburg, E. Caldeweyher
   M. Checinski, S. Dohm, S. Ehlert, S. Ehrlich, I. Gerasimov, C. Hölzer
   A. Katbashev, J. Kohn, J. Koopman, C. Lavigne, S. Lehtola, F. März, M. Müller,
   F. Musil, H. Neugebauer, J. Pisarek, C. Plett, P. Pracht, F. Pultar,
   J. Seibert, P. Shushkov, S. Spicher, M. Stahn, M. Steiner, T. Strunk,
   J. Stückrath, T. Rose, and J. Unsleber
   
 * started run on 2025/09/15 at 12:52:19.553     
   ID    Z sym.   atoms
    1    6 C      1-11, 13-17, 21, 22, 24, 25
    2    7 N      12, 20, 23
    3    8 O      18, 19
    4    1 H      26-50

           -------------------------------------------------
          |                Calculation Setup                |
           -------------------------------------------------

          program call               : /home/users/ntu/xiaogan4/Softwares/orca_6_0_1_linux_x86-64_shared_openmpi416_avx2/otool_xtb Naph_GOAT_XTB.xyz --grad -c 0 -u 0 -P 32 --namespace Naph_GOAT --input Naph_GOAT_XTB.input.tmp --acc 0.200000
          hostname                   : x1001c6s7b1n0
          calculation namespace      : Naph_GOAT
          coordinate file            : Naph_GOAT_XTB.xyz
          omp threads                :                    32


           -------------------------------------------------
          |                 G F N 2 - x T B                 |
           -------------------------------------------------

        Reference                      10.1021/acs.jctc.8b01176
      * Hamiltonian:
        H0-scaling (s, p, d)           1.850000    2.230000    2.230000
        zeta-weighting                 0.500000
      * Dispersion:
        s8                             2.700000
        a1                             0.520000
        a2                             5.000000
        s9                             5.000000
      * Repulsion:
        kExp                           1.500000    1.000000
        rExp                           1.000000
      * Coulomb:
        alpha                          2.000000
        third order                    shell-resolved
        anisotropic                    true
        a3                             3.000000
        a5                             4.000000
        cn-shift                       1.200000
        cn-exp                         4.000000
        max-rad                        5.000000


          ...................................................
          :                      SETUP                      :
          :.................................................:
          :  # basis functions                 125          :
          :  # atomic orbitals                 125          :
          :  # shells                           75          :
          :  # electrons                       132          :
          :  max. iterations                   250          :
          :  Hamiltonian                  GFN2-xTB          :
          :  restarted?                      false          :
          :  GBSA solvation                  false          :
          :  PC potential                    false          :
          :  electronic temp.          300.0000000     K    :
          :  accuracy                    0.2000000          :
          :  -> integral cutoff          0.3198970E+02      :
          :  -> integral neglect         0.2000000E-08      :
          :  -> SCF convergence          0.2000000E-06 Eh   :
          :  -> wf. convergence          0.2000000E-04 e    :
          :  Broyden damping             0.4000000          :
          :  net charge                          0          :
          :  unpaired electrons                  0          :
          ...................................................

 iter      E             dE          RMSdq      gap      omega  full diag
   1    -73.3760600 -0.733761E+02  0.411E+00    1.84       0.0  T
   2    -73.5010705 -0.125010E+00  0.243E+00    2.09       1.0  T
   3    -73.4962895  0.478097E-02  0.139E+00    2.05       1.0  T
   4    -73.5071673 -0.108777E-01  0.568E-01    1.81       1.0  T
   5    -73.5231613 -0.159940E-01  0.146E-01    1.77       1.0  T
   6    -73.5239711 -0.809831E-03  0.577E-02    1.81       1.0  T
   7    -73.5240118 -0.406663E-04  0.236E-02    1.82       1.0  T
   8    -73.5240136 -0.183066E-05  0.946E-03    1.83       1.5  T
   9    -73.5240155 -0.193094E-05  0.402E-03    1.82       3.5  T
  10    -73.5240158 -0.207796E-06  0.126E-03    1.82      11.3  T
  11    -73.5240158 -0.215302E-07  0.717E-04    1.82      19.7  T
  12    -73.5240158 -0.495730E-08  0.206E-04    1.82      68.7  T
  13    -73.5240158 -0.703494E-09  0.802E-05    1.82     176.3  T
  14    -73.5240158 -0.969749E-10  0.388E-05    1.82     364.3  T

   *** convergence criteria satisfied after 14 iterations ***

         #    Occupation            Energy/Eh            Energy/eV
      -------------------------------------------------------------
         1        2.0000           -0.6984546             -19.0059
       ...           ...                  ...                  ...
        60        2.0000           -0.4178080             -11.3691
        61        2.0000           -0.4130660             -11.2401
        62        2.0000           -0.4024859             -10.9522
        63        2.0000           -0.3958439             -10.7715
        64        2.0000           -0.3894510             -10.5975
        65        2.0000           -0.3746320             -10.1943
        66        2.0000           -0.3668286              -9.9819 (HOMO)
        67                         -0.2998373              -8.1590 (LUMO)
        68                         -0.2430699              -6.6143
        69                         -0.2384761              -6.4893
        70                         -0.2210393              -6.0148
        71                         -0.1569979              -4.2721
       ...                                ...                  ...
       125                          0.7021244              19.1058
      -------------------------------------------------------------
                  HL-Gap            0.0669913 Eh            1.8229 eV
             Fermi-level           -0.3333330 Eh           -9.0705 eV

 SCC (total)                   0 d,  0 h,  0 min,  0.056 sec
 SCC setup                      ...        0 min,  0.000 sec (  0.853%)
 Dispersion                     ...        0 min,  0.001 sec (  1.125%)
 classical contributions        ...        0 min,  0.000 sec (  0.234%)
 integral evaluation            ...        0 min,  0.002 sec (  3.474%)
 iterations                     ...        0 min,  0.048 sec ( 85.287%)
 molecular gradient             ...        0 min,  0.005 sec (  8.617%)
 printout                       ...        0 min,  0.000 sec (  0.310%)

         :::::::::::::::::::::::::::::::::::::::::::::::::::::
         ::                     SUMMARY                     ::
         :::::::::::::::::::::::::::::::::::::::::::::::::::::
         :: total energy             -72.523919885865 Eh    ::
         :: gradient norm              0.069576657410 Eh/a0 ::
         :: HOMO-LUMO gap              1.822926452762 eV    ::
         ::.................................................::
         :: SCC energy               -73.524479247602 Eh    ::
         :: -> isotropic ES            0.078611957093 Eh    ::
         :: -> anisotropic ES          0.010340657176 Eh    ::
         :: -> anisotropic XC          0.035269355324 Eh    ::
         :: -> dispersion             -0.050680368859 Eh    ::
         :: repulsion energy           1.000559361737 Eh    ::
         :: add. restraining           0.000000000000 Eh    ::
         :: total charge              -0.000000000000 e     ::
         :::::::::::::::::::::::::::::::::::::::::::::::::::::


Property printout bound to 'properties.out'

           -------------------------------------------------
          | TOTAL ENERGY              -72.523919885865 Eh   |
          | GRADIENT NORM               0.069576657410 Eh/α |
          | HOMO-LUMO GAP               1.822926452762 eV   |
           -------------------------------------------------

------------------------------------------------------------------------
 * finished run on 2025/09/15 at 12:52:19.907     
------------------------------------------------------------------------
 total:
 * wall-time:     0 d,  0 h,  0 min,  0.353 sec
 *  cpu-time:     0 d,  0 h,  0 min,  6.745 sec
 * ratio c/w:    19.098 speedup
 SCF:
 * wall-time:     0 d,  0 h,  0 min,  0.056 sec
 *  cpu-time:     0 d,  0 h,  0 min,  1.704 sec
 * ratio c/w:    30.282 speedup


-------------------------   --------------------
FINAL SINGLE POINT ENERGY       -72.523919885860
-------------------------   --------------------


-------------
DIPOLE MOMENT
-------------
                                X             Y             Z
Total Dipole Moment    :     -1.90900       1.94100       0.56000
                        -----------------------------------------
Magnitude (a.u.)       :      2.77945
Magnitude (Debye)      :      7.06481

------------------------------------------------------------------------------
                         ORCA GEOMETRY RELAXATION STEP
------------------------------------------------------------------------------

Reading the OPT-File                    .... done
Getting information on internals        .... done
Copying old internal coords+grads       .... done
Making the new internal coordinates     .... (2022 redundants) done
Validating the new internal coordinates .... (2022 redundants) done
Calculating the B-matrix                .... done
Calculating the G,G- and P matrices     .... done
Transforming gradient to internals      .... done
Projecting the internal gradient        .... done
Number of atoms                         ....  50
Number of internal coordinates          .... 258
Current Energy                          ....   -72.523919886 Eh
Current gradient norm                   ....     0.069576657 Eh/bohr
Maximum allowed component of the step   ....  0.300
Current trust radius                    ....  0.300
Evaluating the initial hessian          ....  (Almloef) done
Projecting the Hessian                  .... done
Forming the augmented Hessian           .... done
Diagonalizing the augmented Hessian     .... done
Last element of RFO vector              ....  0.977603817
Lowest eigenvalues of augmented Hessian:
 -0.014191611  0.009963698  0.011197052  0.011247825  0.011764275
Length of the computed step             ....  0.215275081
The final length of the internal step   ....  0.215275081
Converting the step to Cartesian space:
 Initial RMS(Int)=    0.0134024411
Transforming coordinates:
 Iter   0:  RMS(Cart)=    0.0900432385 RMS(Int)=    0.5529673623
 Iter   5:  RMS(Cart)=    0.0000000176 RMS(Int)=    0.0000000079
done
Storing new coordinates                 .... done

                                .--------------------.
          ----------------------|Geometry convergence|-------------------------
          Item                value                   Tolerance       Converged
          ---------------------------------------------------------------------
          RMS gradient        0.0050181702            0.0001000000      NO
          MAX gradient        0.0250843131            0.0003000000      NO
          RMS step            0.0134024411            0.0020000000      NO
          MAX step            0.0574643304            0.0040000000      NO
          ........................................................
          Max(Bonds)      0.0248      Max(Angles)    2.23
          Max(Dihed)        3.29      Max(Improp)    0.00
          ---------------------------------------------------------------------

The optimization has not yet converged - more geometry cycles are needed


    ---------------------------------------------------------------------------
                         Redundant Internal Coordinates
                            (Angstroem and degrees)

        Definition                    Value    dE/dq     Step     New-Value
    ----------------------------------------------------------------------------
     1. B(C   1,C   0)                1.3857 -0.005362  0.0041    1.3898   
     2. B(C   2,C   1)                1.3938  0.014638 -0.0126    1.3811   
     3. B(C   3,C   2)                1.4159  0.010887 -0.0099    1.4060   
     4. B(C   4,C   3)                1.4238  0.003480 -0.0024    1.4214   
     5. B(C   5,C   4)                1.3988 -0.001800  0.0024    1.4012   
     6. B(C   5,C   0)                1.4014  0.018861 -0.0162    1.3852   
     7. B(C   6,C   3)                1.4303  0.004096 -0.0038    1.4265   
     8. B(C   7,C   6)                1.4019  0.011876 -0.0107    1.3912   
     9. B(C   8,C   7)                1.3939  0.004556 -0.0043    1.3897   
    10. B(C   9,C   8)                1.3962  0.013508 -0.0115    1.3847   
    11. B(C   9,C   4)                1.3940 -0.005725  0.0057    1.3996   
    12. B(C  10,C   9)                1.4812  0.008753 -0.0101    1.4711   
    13. B(N  11,C  10)                1.4002  0.013310 -0.0133    1.3869   
    14. B(C  12,N  11)                1.3928  0.010631 -0.0104    1.3823   
    15. B(C  12,C   5)                1.4816 -0.000124  0.0002    1.4818   
    16. B(C  13,N  11)                1.4728  0.004495 -0.0056    1.4673   
    17. B(C  14,C  13)                1.5293  0.006203 -0.0084    1.5209   
    18. B(C  15,C  14)                1.5287  0.001868 -0.0025    1.5261   
    19. B(C  16,C  15)                1.5222  0.000336 -0.0004    1.5218   
    20. B(O  17,C  12)                1.2280  0.017245 -0.0089    1.2191   
    21. B(O  18,C  10)                1.2299  0.019613 -0.0102    1.2198   
    22. B(N  19,C   6)                1.4090  0.025084 -0.0248    1.3842   
    23. B(C  20,N  19)                1.4672  0.013601 -0.0165    1.4507   
    24. B(C  21,C  20)                1.5470  0.013375 -0.0194    1.5276   
    25. B(N  22,C  21)                1.4766  0.017782 -0.0223    1.4543   
    26. B(C  23,N  22)                1.4636  0.011465 -0.0138    1.4498   
    27. B(C  24,N  22)                1.4661  0.013075 -0.0158    1.4502   
    28. B(H  25,C   0)                1.0887  0.006462 -0.0091    1.0796   
    29. B(H  26,C   1)                1.0871  0.005673 -0.0079    1.0791   
    30. B(H  27,C   2)                1.0876  0.004647 -0.0065    1.0811   
    31. B(H  28,C   7)                1.0862  0.005801 -0.0081    1.0781   
    32. B(H  29,C   8)                1.0888  0.007103 -0.0100    1.0788   
    33. B(H  30,C  13)                1.0985  0.000713 -0.0010    1.0975   
    34. B(H  31,C  13)                1.0982  0.000457 -0.0007    1.0976   
    35. B(H  32,C  14)                1.0963  0.004069 -0.0059    1.0904   
    36. B(H  33,C  14)                1.0965  0.004039 -0.0058    1.0907   
    37. B(H  34,C  15)                1.0959  0.001902 -0.0027    1.0931   
    38. B(H  35,C  15)                1.0959  0.002009 -0.0029    1.0930   
    39. B(H  36,C  16)                1.0951  0.004747 -0.0068    1.0882   
    40. B(H  37,C  16)                1.0940  0.003673 -0.0053    1.0887   
    41. B(H  38,C  16)                1.0951  0.004795 -0.0069    1.0882   
    42. B(H  39,N  19)                1.0172  0.004373 -0.0053    1.0118   
    43. B(H  40,C  20)                1.0954 -0.001826  0.0026    1.0980   
    44. B(H  41,C  20)                1.0963  0.003750 -0.0054    1.0909   
    45. B(H  42,C  21)                1.0987  0.003135 -0.0046    1.0941   
    46. B(H  43,C  21)                1.0988 -0.004783  0.0070    1.1058   
    47. B(H  44,C  23)                1.0945  0.003710 -0.0053    1.0892   
    48. B(H  45,C  23)                1.0961  0.004719 -0.0068    1.0893   
    49. B(H  46,C  23)                1.0958 -0.002597  0.0037    1.0995   
    50. B(H  47,C  24)                1.0957  0.004018 -0.0058    1.0899   
    51. B(H  48,C  24)                1.0963 -0.002119  0.0031    1.0993   
    52. B(H  49,C  24)                1.0958  0.004661 -0.0067    1.0891   
    53. A(C   5,C   0,H  25)          120.55  0.004428   -0.70    119.85   
    54. A(C   1,C   0,H  25)          119.37 -0.004600    0.71    120.07   
    55. A(C   1,C   0,C   5)          120.08  0.000170   -0.01    120.07   
    56. A(C   0,C   1,H  26)          120.19  0.001691   -0.19    120.00   
    57. A(C   2,C   1,H  26)          120.30  0.003251   -0.43    119.86   
    58. A(C   0,C   1,C   2)          119.52 -0.004942    0.62    120.14   
    59. A(C   3,C   2,H  27)          120.61  0.000597   -0.13    120.49   
    60. A(C   1,C   2,C   3)          122.13  0.003676   -0.51    121.62   
    61. A(C   1,C   2,H  27)          117.24 -0.004269    0.63    117.88   
    62. A(C   2,C   3,C   4)          117.40 -0.001283    0.20    117.61   
    63. A(C   2,C   3,C   6)          122.83 -0.003775    0.39    123.22   
    64. A(C   4,C   3,C   6)          119.76  0.005059   -0.59    119.17   
    65. A(C   5,C   4,C   9)          120.31  0.004417   -0.54    119.77   
    66. A(C   3,C   4,C   9)          119.73 -0.002517    0.33    120.06   
    67. A(C   3,C   4,C   5)          119.96 -0.001900    0.21    120.17   
    68. A(C   4,C   5,C  12)          120.62 -0.000134    0.09    120.70   
    69. A(C   0,C   5,C  12)          118.49 -0.004140    0.43    118.92   
    70. A(C   0,C   5,C   4)          120.89  0.004274   -0.51    120.38   
    71. A(C   3,C   6,C   7)          118.38 -0.002764    0.39    118.76   
    72. A(C   3,C   6,N  19)          119.66  0.003654   -0.47    119.19   
    73. A(C   7,C   6,N  19)          121.78 -0.000924    0.15    121.92   
    74. A(C   6,C   7,C   8)          121.29 -0.001556    0.13    121.42   
    75. A(C   8,C   7,H  28)          117.38 -0.001948    0.36    117.74   
    76. A(C   6,C   7,H  28)          121.33  0.003502   -0.49    120.84   
    77. A(C   9,C   8,H  29)          120.52  0.004458   -0.66    119.86   
    78. A(C   7,C   8,C   9)          120.24 -0.002307    0.28    120.52   
    79. A(C   7,C   8,H  29)          119.24 -0.002153    0.38    119.62   
    80. A(C   4,C   9,C   8)          120.46  0.004052   -0.49    119.97   
    81. A(C   4,C   9,C  10)          120.40  0.000664   -0.02    120.38   
    82. A(C   8,C   9,C  10)          119.13 -0.004719    0.51    119.65   
    83. A(N  11,C  10,O  18)          123.42  0.018211   -2.23    121.20   
    84. A(C   9,C  10,N  11)          117.79 -0.001514    0.15    117.94   
    85. A(C   9,C  10,O  18)          118.79 -0.016699    2.08    120.87   
    86. A(C  12,N  11,C  13)          122.30 -0.006897    1.05    123.35   
    87. A(C  10,N  11,C  13)          114.44  0.013163   -1.80    112.64   
    88. A(C  10,N  11,C  12)          123.22 -0.006270    0.76    123.98   
    89. A(N  11,C  12,O  17)          125.43  0.012610   -1.52    123.91   
    90. A(C   5,C  12,O  17)          116.98 -0.015448    1.94    118.92   
    91. A(C   5,C  12,N  11)          117.60  0.002837   -0.43    117.17   
    92. A(H  30,C  13,H  31)          106.15 -0.000321    0.23    106.38   
    93. A(C  14,C  13,H  31)          108.99 -0.000764    0.19    109.18   
    94. A(C  14,C  13,H  30)          108.66 -0.001038    0.17    108.83   
    95. A(N  11,C  13,H  30)          106.64  0.000920   -0.29    106.36   
    96. A(N  11,C  13,C  14)          118.88  0.000976   -0.22    118.66   
    97. A(N  11,C  13,H  31)          106.82  0.000139   -0.05    106.78   
    98. A(H  32,C  14,H  33)          108.23  0.001480   -0.11    108.12   
    99. A(C  15,C  14,H  33)          108.57 -0.002510    0.41    108.98   
   100. A(C  13,C  14,H  33)          109.73 -0.002414    0.25    109.98   
   101. A(C  15,C  14,H  32)          108.21 -0.003275    0.59    108.80   
   102. A(C  13,C  14,H  32)          109.59 -0.002701    0.41    110.00   
   103. A(C  13,C  14,C  15)          112.40  0.009202   -1.49    110.91   
   104. A(C  16,C  15,H  35)          109.27 -0.000613    0.10    109.37   
   105. A(C  14,C  15,H  35)          110.03  0.001043   -0.20    109.84   
   106. A(C  16,C  15,H  34)          109.32 -0.000006    0.06    109.38   
   107. A(C  14,C  15,H  34)          110.07  0.000947   -0.18    109.90   
   108. A(C  14,C  15,C  16)          110.64 -0.001407    0.21    110.85   
   109. A(H  34,C  15,H  35)          107.44  0.000068   -0.00    107.44   
   110. A(H  37,C  16,H  38)          108.11 -0.000785    0.13    108.24   
   111. A(H  36,C  16,H  38)          108.10 -0.000052   -0.01    108.08   
   112. A(H  36,C  16,H  37)          108.14 -0.000333    0.10    108.24   
   113. A(C  15,C  16,H  37)          110.51 -0.000598    0.11    110.62   
   114. A(C  15,C  16,H  36)          110.93  0.000939   -0.15    110.78   
   115. A(C  15,C  16,H  38)          110.93  0.000772   -0.15    110.78   
   116. A(C  20,N  19,H  39)          111.91  0.000576    0.36    112.27   
   117. A(C   6,N  19,H  39)          110.42 -0.004444    1.26    111.68   
   118. A(C   6,N  19,C  20)          120.52  0.002487   -0.00    120.52   
   119. A(C  21,C  20,H  41)          108.85 -0.001413   -0.09    108.76   
   120. A(H  40,C  20,H  41)          109.14  0.000357    0.17    109.31   
   121. A(N  19,C  20,H  41)          109.95  0.000427   -0.62    109.34   
   122. A(C  21,C  20,H  40)          109.64 -0.001600    0.55    110.19   
   123. A(N  19,C  20,H  40)          109.14 -0.005347    1.27    110.41   
   124. A(N  19,C  20,C  21)          110.10  0.007541   -1.27    108.83   
   125. A(H  42,C  21,H  43)          106.30 -0.003198    1.18    107.48   
   126. A(N  22,C  21,H  43)          110.34 -0.001923    0.58    110.93   
   127. A(C  20,C  21,H  43)          109.11 -0.000977    0.20    109.31   
   128. A(N  22,C  21,H  42)          108.61  0.000655   -0.61    108.00   
   129. A(C  20,C  21,H  42)          107.23 -0.004257    0.45    107.69   
   130. A(C  20,C  21,N  22)          114.86  0.008759   -1.61    113.25   
   131. A(C  23,N  22,C  24)          109.74 -0.002230    0.35    110.08   
   132. A(C  21,N  22,C  24)          109.80  0.000925   -0.14    109.66   
   133. A(C  21,N  22,C  23)          112.31  0.000919   -0.17    112.15   
   134. A(H  45,C  23,H  46)          108.25 -0.001638    0.22    108.48   
   135. A(H  44,C  23,H  46)          108.67 -0.001450    0.27    108.94   
   136. A(N  22,C  23,H  46)          112.18 -0.001924    0.28    112.46   
   137. A(H  44,C  23,H  45)          105.80 -0.005194    0.99    106.79   
   138. A(N  22,C  23,H  45)          110.62  0.005922   -1.03    109.59   
   139. A(N  22,C  23,H  44)          111.06  0.003889   -0.65    110.41   
   140. A(H  48,C  24,H  49)          108.34 -0.001765    0.28    108.62   
   141. A(H  47,C  24,H  49)          106.52 -0.004851    0.89    107.41   
   142. A(N  22,C  24,H  49)          110.58  0.005325   -0.93    109.65   
   143. A(H  47,C  24,H  48)          108.39 -0.001448    0.27    108.66   
   144. A(N  22,C  24,H  48)          112.10 -0.001961    0.30    112.40   
   145. A(N  22,C  24,H  47)          110.72  0.004325   -0.74    109.98   
   146. D(C   2,C   1,C   0,C   5)      0.71 -0.000105    0.15      0.86   
   147. D(C   2,C   1,C   0,H  25)    179.94 -0.000195    0.30    180.24   
   148. D(H  26,C   1,C   0,H  25)      0.36 -0.000099    0.11      0.47   
   149. D(H  26,C   1,C   0,C   5)   -178.87 -0.000008   -0.03   -178.90   
   150. D(C   3,C   2,C   1,C   0)      0.39  0.000241   -0.37      0.03   
   151. D(H  27,C   2,C   1,H  26)      1.23 -0.000085    0.03      1.26   
   152. D(C   3,C   2,C   1,H  26)    179.97  0.000138   -0.18    179.79   
   153. D(H  27,C   2,C   1,C   0)   -178.35  0.000019   -0.15   -178.50   
   154. D(C   4,C   3,C   2,C   1)     -1.61 -0.000318    0.39     -1.22   
   155. D(C   6,C   3,C   2,C   1)    178.77 -0.000420    0.43    179.20   
   156. D(C   6,C   3,C   2,H  27)     -2.53 -0.000247    0.22     -2.31   
   157. D(C   4,C   3,C   2,H  27)    177.09 -0.000146    0.18    177.27   
   158. D(C   5,C   4,C   3,C   2)      1.76  0.000114   -0.19      1.57   
   159. D(C   5,C   4,C   3,C   6)   -178.62  0.000177   -0.22   -178.84   
   160. D(C   9,C   4,C   3,C   2)   -177.77  0.000105   -0.23   -178.00   
   161. D(C   9,C   4,C   3,C   6)      1.86  0.000168   -0.26      1.59   
   162. D(C  12,C   5,C   4,C   9)     -0.88  0.000048   -0.06     -0.95   
   163. D(C   0,C   5,C   4,C   9)    178.79 -0.000073    0.04    178.83   
   164. D(C   0,C   5,C   4,C   3)     -0.73 -0.000049   -0.00     -0.74   
   165. D(C  12,C   5,C   0,H  25)     -0.07  0.000002   -0.02     -0.10   
   166. D(C   4,C   5,C   0,H  25)   -179.75  0.000108   -0.12   -179.88   
   167. D(C  12,C   5,C   4,C   3)    179.59  0.000073   -0.11    179.48   
   168. D(C   4,C   5,C   0,C   1)     -0.54 -0.000054    0.04     -0.50   
   169. D(C  12,C   5,C   0,C   1)    179.14 -0.000161    0.14    179.28   
   170. D(N  19,C   6,C   3,C   4)   -179.59  0.000057   -0.08   -179.67   
   171. D(N  19,C   6,C   3,C   2)      0.02  0.000136   -0.12     -0.10   
   172. D(C   7,C   6,C   3,C   4)     -4.39 -0.000450    0.73     -3.67   
   173. D(C   7,C   6,C   3,C   2)    175.21 -0.000371    0.69    175.90   
   174. D(H  28,C   7,C   6,C   3)   -176.63  0.000352   -0.81   -177.45   
   175. D(C   8,C   7,C   6,N  19)    179.41  0.000182   -0.15    179.27   
   176. D(C   8,C   7,C   6,C   3)      4.33  0.000472   -0.94      3.38   
   177. D(H  28,C   7,C   6,N  19)     -1.55  0.000062   -0.02     -1.56   
   178. D(H  29,C   8,C   7,H  28)     -0.48 -0.000037   -0.01     -0.50   
   179. D(H  29,C   8,C   7,C   6)    178.59 -0.000102    0.10    178.70   
   180. D(C   9,C   8,C   7,H  28)    179.26 -0.000540    0.62    179.88   
   181. D(C   9,C   8,C   7,C   6)     -1.66 -0.000604    0.73     -0.93   
   182. D(C  10,C   9,C   8,H  29)     -0.28 -0.000187    0.20     -0.08   
   183. D(C   4,C   9,C   8,H  29)    178.72 -0.000314    0.41    179.14   
   184. D(C   4,C   9,C   8,C   7)     -1.02  0.000212   -0.23     -1.25   
   185. D(C  10,C   9,C   4,C   5)      0.34 -0.000059    0.17      0.51   
   186. D(C  10,C   9,C   4,C   3)    179.87 -0.000081    0.21    180.08   
   187. D(C  10,C   9,C   8,C   7)    179.98  0.000340   -0.44    179.54   
   188. D(C   8,C   9,C   4,C   5)   -178.65  0.000123   -0.06   -178.70   
   189. D(C   8,C   9,C   4,C   3)      0.88  0.000102   -0.01      0.87   
   190. D(O  18,C  10,C   9,C   8)     -2.39 -0.000472    0.74     -1.65   
   191. D(O  18,C  10,C   9,C   4)    178.61 -0.000379    0.53    179.15   
   192. D(N  11,C  10,C   9,C   8)    177.93 -0.000083    0.01    177.94   
   193. D(N  11,C  10,C   9,C   4)     -1.07  0.000010   -0.20     -1.27   
   194. D(C  13,N  11,C  10,O  18)      0.63  0.000096   -0.40      0.24   
   195. D(C  13,N  11,C  10,C   9)   -179.70 -0.000435    0.39   -179.31   
   196. D(C  12,N  11,C  10,O  18)   -177.18  0.000346   -0.62   -177.80   
   197. D(C  12,N  11,C  10,C   9)      2.49 -0.000185    0.16      2.66   
   198. D(O  17,C  12,N  11,C  13)     -0.88 -0.000120   -0.05     -0.93   
   199. D(C   5,C  12,N  11,C  13)    179.36 -0.000074   -0.23    179.12   
   200. D(C   5,C  12,N  11,C  10)     -3.01  0.000083   -0.05     -3.06   
   201. D(O  17,C  12,C   5,C   4)   -177.63  0.000047   -0.17   -177.80   
   202. D(O  17,C  12,C   5,C   0)      2.69  0.000139   -0.27      2.41   
   203. D(O  17,C  12,N  11,C  10)    176.76  0.000037    0.13    176.89   
   204. D(N  11,C  12,C   5,C   4)      2.15  0.000068   -0.01      2.14   
   205. D(N  11,C  12,C   5,C   0)   -177.53  0.000160   -0.11   -177.64   
   206. D(H  30,C  13,N  11,C  10)     54.94  0.000362   -0.55     54.40   
   207. D(C  14,C  13,N  11,C  12)     -4.12  0.000208   -0.51     -4.62   
   208. D(C  14,C  13,N  11,C  10)    178.05  0.000446   -0.72    177.33   
   209. D(H  31,C  13,N  11,C  10)    -58.23  0.000244   -0.66    -58.89   
   210. D(H  30,C  13,N  11,C  12)   -127.22  0.000124   -0.33   -127.56   
   211. D(H  32,C  14,C  13,H  31)    -61.11 -0.000572    0.20    -60.91   
   212. D(H  32,C  14,C  13,H  30)   -176.36  0.000778   -0.27   -176.63   
   213. D(H  32,C  14,C  13,N  11)     61.53 -0.000307    0.14     61.67   
   214. D(C  15,C  14,C  13,H  31)     59.26 -0.000546    0.25     59.50   
   215. D(C  15,C  14,C  13,H  30)    -55.99  0.000804   -0.22    -56.22   
   216. D(C  15,C  14,C  13,N  11)   -178.10 -0.000281    0.18   -177.92   
   217. D(H  34,C  15,C  14,H  33)    -61.82 -0.000692    0.17    -61.65   
   218. D(H  34,C  15,C  14,H  32)   -179.08  0.000709   -0.24   -179.32   
   219. D(H  34,C  15,C  14,C  13)     59.76  0.000492   -0.20     59.56   
   220. D(C  16,C  15,C  14,H  33)     59.11 -0.000993    0.27     59.38   
   221. D(C  16,C  15,C  14,H  32)    -58.15  0.000407   -0.14    -58.29   
   222. D(C  16,C  15,C  14,C  13)   -179.31  0.000191   -0.11   -179.41   
   223. D(H  37,C  16,C  15,H  35)     58.50 -0.000003    0.02     58.52   
   224. D(H  37,C  16,C  15,H  34)    -58.83  0.000271   -0.06    -58.89   
   225. D(H  37,C  16,C  15,C  14)    179.79 -0.000004   -0.02    179.77   
   226. D(H  36,C  16,C  15,H  35)    178.44 -0.000201    0.11    178.55   
   227. D(H  36,C  16,C  15,H  34)     61.11  0.000073    0.03     61.14   
   228. D(H  36,C  16,C  15,C  14)    -60.26 -0.000201    0.07    -60.20   
   229. D(H  39,N  19,C   6,C   7)    144.41 -0.001651    2.44    146.85   
   230. D(H  39,N  19,C   6,C   3)    -40.57 -0.002256    3.29    -37.28   
   231. D(C  20,N  19,C   6,C   7)     11.44 -0.000065    0.42     11.86   
   232. D(C  20,N  19,C   6,C   3)   -173.54 -0.000670    1.27   -172.26   
   233. D(H  41,C  20,N  19,C   6)    -64.84  0.000847    0.25    -64.59   
   234. D(H  40,C  20,N  19,H  39)    -77.49  0.001942   -1.56    -79.05   
   235. D(H  40,C  20,N  19,C   6)     54.85 -0.001748    0.86     55.71   
   236. D(C  21,C  20,N  19,H  39)     42.90  0.001268   -0.87     42.03   
   237. D(C  21,C  20,N  19,C   6)    175.24 -0.002422    1.54    176.78   
   238. D(H  42,C  21,C  20,H  41)    -65.54 -0.003118    0.42    -65.12   
   239. D(H  42,C  21,C  20,H  40)    175.14 -0.001756   -0.05    175.09   
   240. D(H  42,C  21,C  20,N  19)     55.05  0.001143   -1.17     53.88   
   241. D(N  22,C  21,C  20,H  41)     55.25  0.000215   -1.05     54.20   
   242. D(N  22,C  21,C  20,H  40)    -64.07  0.001577   -1.53    -65.60   
   243. D(N  22,C  21,C  20,N  19)    175.84  0.004476   -2.64    173.20   
   244. D(C  24,N  22,C  21,H  42)    -54.87 -0.000224    0.50    -54.37   
   245. D(C  24,N  22,C  21,C  20)   -174.91 -0.000994    1.42   -173.48   
   246. D(C  23,N  22,C  21,H  43)    -61.12 -0.003200    1.67    -59.45   
   247. D(C  23,N  22,C  21,H  42)   -177.26  0.001340    0.28   -176.99   
   248. D(C  23,N  22,C  21,C  20)     62.70  0.000570    1.20     63.90   
   249. D(H  46,C  23,N  22,C  21)     55.95 -0.000363    0.07     56.02   
   250. D(H  45,C  23,N  22,C  24)     54.51  0.000161   -0.13     54.38   
   251. D(H  45,C  23,N  22,C  21)    176.94  0.000383   -0.18    176.76   
   252. D(H  44,C  23,N  22,C  24)    171.68 -0.000151    0.05    171.73   
   253. D(H  44,C  23,N  22,C  21)    -65.89  0.000072   -0.00    -65.90   
   254. D(H  49,C  24,N  22,C  21)    176.67 -0.000154    0.09    176.77   
   255. D(H  48,C  24,N  22,C  23)     61.59  0.000254   -0.07     61.52   
   256. D(H  48,C  24,N  22,C  21)    -62.32 -0.000022    0.00    -62.31   
   257. D(H  47,C  24,N  22,C  23)   -177.24  0.000095   -0.04   -177.28   
   258. D(H  47,C  24,N  22,C  21)     58.85 -0.000181    0.03     58.89   
    ----------------------------------------------------------------------------

Geometry step timings:
Preparation and reading OPT file:      0.001 s ( 2.699 %)
Internal coordinates            :      0.000 s ( 0.220 %)
B/P matrices and projection     :      0.008 s (30.385 %)
Hessian update/contruction      :      0.007 s (25.123 %)
Making the step                 :      0.006 s (20.544 %)
Converting the step to Cartesian:      0.001 s ( 2.663 %)
Storing new data                :      0.001 s ( 2.360 %)
Checking convergence            :      0.000 s ( 0.126 %)
Final printing                  :      0.002 s ( 7.405 %)
Total time                      :      0.028 s

Time for energy+gradient        :      0.374 s
Time for complete geometry iter :      0.411 s

         *************************************************************
         *                GEOMETRY OPTIMIZATION CYCLE   2            *
         *************************************************************
---------------------------------
CARTESIAN COORDINATES (ANGSTROEM)
---------------------------------
  C     1.756684    1.823098    0.020207
  C     0.803218    2.832612   -0.037399
  C    -0.540885    2.516243   -0.066832
  C    -0.984998    1.182567   -0.039424
  C     0.001977    0.160235   -0.006817
  C     1.361970    0.495398    0.030306
  C    -2.363925    0.817588   -0.051722
  C    -2.698759   -0.531474   -0.109387
  C    -1.723854   -1.521497   -0.084814
  C    -0.381988   -1.185625   -0.020855
  C     0.633582   -2.249416    0.014402
  N     1.968354   -1.873080    0.034226
  C     2.400440   -0.560659    0.075974
  C     2.879273   -3.023178    0.052646
  C     4.377976   -2.767470    0.013447
  C     5.154125   -4.081242   -0.011914
  C     6.653800   -3.824082   -0.036577
  O     3.572321   -0.232367    0.148303
  O     0.308550   -3.425094    0.017837
  N    -3.325365    1.812697   -0.090434
  C    -4.730250    1.485773    0.064134
  C    -5.541028    2.780419    0.059649
  N    -6.978142    2.557592    0.051507
  C    -7.434497    1.889754    1.254736
  C    -7.667238    3.823764   -0.107155
  H     2.806936    2.071761    0.047042
  H     1.112626    3.866106   -0.063105
  H    -1.250097    3.329162   -0.136524
  H    -3.729481   -0.843317   -0.161483
  H    -2.017159   -2.559327   -0.109705
  H     2.604221   -3.649057   -0.805911
  H     2.636160   -3.605535    0.950653
  H     4.682069   -2.196601    0.891307
  H     4.633872   -2.187124   -0.873828
  H     4.871420   -4.663369   -0.892892
  H     4.902968   -4.677479    0.869084
  H     6.933089   -3.252740   -0.919641
  H     7.203687   -4.763582   -0.050582
  H     6.963529   -3.261256    0.841799
[...]
  23      363.00    150.00    1.00 : 0.50      20        1    Naph_GOAT.goat.2.23.out
  16     2903.97    150.00    1.00 : 0.50      20        1    Naph_GOAT.goat.2.16.out
  18      725.99    150.00    1.00 : 0.50      20        1    Naph_GOAT.goat.2.18.out
  26      725.99    150.00    1.00 : 0.50      20        1    Naph_GOAT.goat.2.26.out
  19      363.00    150.00    1.00 : 0.50      20        1    Naph_GOAT.goat.2.19.out
  20     2903.97    150.00    1.00 : 0.50      20        1    Naph_GOAT.goat.2.20.out
  25     1451.98    150.00    1.00 : 0.50      20        1    Naph_GOAT.goat.2.25.out
  24     2903.97    150.00    1.00 : 0.50      20        1    Naph_GOAT.goat.2.24.out
  22      725.99    150.00    1.00 : 0.50      20        1    Naph_GOAT.goat.2.22.out
  21     1451.98    150.00    1.00 : 0.50      20        1    Naph_GOAT.goat.2.21.out
  27      363.00    150.00    1.00 : 0.50      20        1    Naph_GOAT.goat.2.27.out
  29     1451.98    150.00    1.00 : 0.50      20        1    Naph_GOAT.goat.2.29.out
  28     2903.97    150.00    1.00 : 0.50      20        1    Naph_GOAT.goat.2.28.out
  30      725.99    150.00    1.00 : 0.50      20        1    Naph_GOAT.goat.2.30.out

			     GOAT Global Iter 3
		Iter    Min En       Sconf       Gconf   
		        Hartree      cal/(molK)  kcal/mol
		=========================================

		   1    -72.550919   7.625       -1.569
		   2    -72.550919   7.967       -1.599
		   3    -72.550919   8.083       -1.609

		Global minimum found!
		Writing structure to Naph_GOAT.globalminimum.xyz

		# Final ensemble info #
		Conformer     Energy     Degen.   % total   % cumul.  
		              (kcal/mol)
		------------------------------------------------------
		        0     0.000	     1       6.62       6.62
		        1     0.011	     1       6.50      13.12
		        2     0.032	     1       6.28      19.39
		        3     0.042	     1       6.17      25.56
		        4     0.116	     1       5.44      31.00
		        5     0.127	     1       5.34      36.34
		        6     0.143	     1       5.20      41.55
		        7     0.153	     1       5.11      46.66
		        8     0.336	     1       3.75      50.41
		        9     0.341	     1       3.73      54.14
		       10     0.666	     1       2.15      56.29
		       11     0.667	     1       2.15      58.44
		       12     0.670	     1       2.14      60.57
		       13     0.882	     1       1.49      62.07
		       14     0.915	     1       1.41      63.48
		       15     0.920	     1       1.40      64.88
		       16     0.924	     1       1.39      66.27
		       17     0.930	     1       1.38      67.65
		       18     0.949	     1       1.33      68.99
		       19     1.024	     1       1.18      70.16
		       20     1.034	     1       1.16      71.32
		       21     1.058	     1       1.11      72.43
		       22     1.224	     1       0.84      73.27
		       23     1.237	     1       0.82      74.09
		       24     1.553	     1       0.48      74.57
		       25     1.553	     1       0.48      75.05
		       26     1.563	     1       0.47      75.52
		       27     1.564	     1       0.47      76.00
		       28     1.610	     1       0.44      76.43
		       29     1.618	     1       0.43      76.87
		       30     1.622	     1       0.43      77.29
		       31     1.625	     1       0.43      77.72
		       32     1.640	     1       0.42      78.14
		       33     1.651	     1       0.41      78.54
		       34     1.722	     1       0.36      78.91
		       35     1.732	     1       0.36      79.26
		       36     1.748	     1       0.35      79.61
		       37     1.758	     1       0.34      79.95
		       38     1.782	     1       0.33      80.28
		       39     1.802	     1       0.32      80.59
		       40     1.812	     1       0.31      80.90
		       41     1.815	     1       0.31      81.21
		       42     1.838	     1       0.30      81.51
		       43     1.840	     1       0.30      81.81
		       44     1.851	     1       0.29      82.10
		       45     1.859	     1       0.29      82.39
		       46     1.886	     1       0.27      82.66
		       47     1.897	     1       0.27      82.93
		       48     1.899	     1       0.27      83.20
		       49     1.921	     1       0.26      83.46
		       50     1.924	     1       0.26      83.71
		       51     1.940	     1       0.25      83.96
		       52     1.943	     1       0.25      84.21
		       53     1.945	     1       0.25      84.46
		       54     1.984	     1       0.23      84.69
		       55     1.985	     1       0.23      84.93
		       56     1.997	     1       0.23      85.15
		       57     2.007	     1       0.22      85.38
		       58     2.013	     1       0.22      85.60
		       59     2.021	     1       0.22      85.82
		       60     2.030	     1       0.22      86.03
		       61     2.046	     1       0.21      86.24
		       62     2.093	     1       0.19      86.44
		       63     2.111	     1       0.19      86.62
		       64     2.118	     1       0.19      86.81
		       65     2.119	     1       0.19      86.99
		       66     2.125	     1       0.18      87.18
		       67     2.127	     1       0.18      87.36
		       68     2.129	     1       0.18      87.54
		       69     2.139	     1       0.18      87.72
		       70     2.152	     1       0.18      87.90
		       71     2.206	     1       0.16      88.06
		       72     2.227	     1       0.15      88.21
		       73     2.240	     1       0.15      88.36
		       74     2.243	     1       0.15      88.51
		       75     2.252	     1       0.15      88.66
		       76     2.267	     1       0.14      88.80
		       77     2.267	     1       0.14      88.95
		       78     2.267	     1       0.14      89.09
		       79     2.270	     1       0.14      89.24
		       80     2.270	     1       0.14      89.38
		       81     2.271	     1       0.14      89.52
		       82     2.274	     1       0.14      89.66
		       83     2.283	     1       0.14      89.81
		       84     2.284	     1       0.14      89.95
		       85     2.302	     1       0.14      90.08
		       86     2.310	     1       0.13      90.22
		       87     2.320	     1       0.13      90.35
		       88     2.328	     1       0.13      90.48
		       89     2.330	     1       0.13      90.61
		       90     2.334	     1       0.13      90.74
		       91     2.340	     1       0.13      90.86
		       92     2.348	     1       0.13      90.99
		       93     2.350	     1       0.13      91.11
		       94     2.357	     1       0.12      91.24
		       95     2.362	     1       0.12      91.36
		       96     2.365	     1       0.12      91.48
		       97     2.369	     1       0.12      91.61
		       98     2.376	     1       0.12      91.73
		       99     2.386	     1       0.12      91.84
		      100     2.387	     1       0.12      91.96
		      101     2.388	     1       0.12      92.08
		      102     2.393	     1       0.12      92.20
		      103     2.394	     1       0.12      92.31
		      104     2.409	     1       0.11      92.43
		      105     2.416	     1       0.11      92.54
		      106     2.421	     1       0.11      92.65
		      107     2.437	     1       0.11      92.76
		      108     2.437	     1       0.11      92.86
		      109     2.446	     1       0.11      92.97
		      110     2.447	     1       0.11      93.08
		      111     2.447	     1       0.11      93.18
		      112     2.452	     1       0.11      93.29
		      113     2.453	     1       0.11      93.40
		      114     2.459	     1       0.10      93.50
		      115     2.464	     1       0.10      93.60
		      116     2.478	     1       0.10      93.70
		      117     2.499	     1       0.10      93.80
		      118     2.501	     1       0.10      93.90
		      119     2.502	     1       0.10      94.00
		      120     2.504	     1       0.10      94.09
		      121     2.509	     1       0.10      94.19
		      122     2.525	     1       0.09      94.28
		      123     2.526	     1       0.09      94.37
		      124     2.536	     1       0.09      94.47
		      125     2.541	     1       0.09      94.56
		      126     2.545	     1       0.09      94.65
		      127     2.547	     1       0.09      94.74
		      128     2.558	     1       0.09      94.83
		      129     2.558	     1       0.09      94.91
		      130     2.570	     1       0.09      95.00
		      131     2.576	     1       0.09      95.09
		      132     2.585	     1       0.08      95.17
		      133     2.590	     1       0.08      95.25
		      134     2.593	     1       0.08      95.34
		      135     2.595	     1       0.08      95.42
		      136     2.596	     1       0.08      95.50
		      137     2.616	     1       0.08      95.58
		      138     2.619	     1       0.08      95.66
		      139     2.625	     1       0.08      95.74
		      140     2.636	     1       0.08      95.82
		      141     2.641	     1       0.08      95.90
		      142     2.646	     1       0.08      95.97
		      143     2.657	     1       0.07      96.05
		      144     2.658	     1       0.07      96.12
		      145     2.658	     1       0.07      96.20
		      146     2.661	     1       0.07      96.27
		      147     2.661	     1       0.07      96.34
		      148     2.667	     1       0.07      96.42
		      149     2.677	     1       0.07      96.49
		      150     2.698	     1       0.07      96.56
		      151     2.698	     1       0.07      96.63
		      152     2.707	     1       0.07      96.70
		      153     2.731	     1       0.07      96.76
		      154     2.735	     1       0.07      96.83
		      155     2.750	     1       0.06      96.89
		      156     2.767	     1       0.06      96.95
		      157     2.769	     1       0.06      97.02
		      158     2.780	     1       0.06      97.08
		      159     2.783	     1       0.06      97.14
		      160     2.831	     1       0.06      97.19
		      161     2.833	     1       0.06      97.25
		      162     2.833	     1       0.06      97.30
		      163     2.843	     1       0.05      97.36
		      164     2.849	     1       0.05      97.41
		      165     2.853	     1       0.05      97.47
		      166     2.872	     1       0.05      97.52
		      167     2.873	     1       0.05      97.57
		      168     2.875	     1       0.05      97.62
		      169     2.888	     1       0.05      97.67
		      170     2.912	     1       0.05      97.72
		      171     2.912	     1       0.05      97.77
		      172     2.913	     1       0.05      97.82
		      173     2.913	     1       0.05      97.87
		      174     2.918	     1       0.05      97.91
		      175     2.920	     1       0.05      97.96
		      176     2.937	     1       0.05      98.01
		      177     2.945	     1       0.05      98.06
		      178     2.948	     1       0.05      98.10
		      179     2.951	     1       0.05      98.15
		      180     2.953	     1       0.05      98.19
		      181     2.964	     1       0.04      98.24
		      182     2.964	     1       0.04      98.28
		      183     2.964	     1       0.04      98.33
		      184     2.985	     1       0.04      98.37
		      185     2.986	     1       0.04      98.41
		      186     2.987	     1       0.04      98.45
		      187     2.987	     1       0.04      98.50
		      188     2.993	     1       0.04      98.54
		      189     3.027	     1       0.04      98.58
		      190     3.029	     1       0.04      98.62
		      191     3.036	     1       0.04      98.66
		      192     3.036	     1       0.04      98.70
		      193     3.038	     1       0.04      98.74
		      194     3.079	     1       0.04      98.77
		      195     3.085	     1       0.04      98.81
		      196     3.115	     1       0.03      98.84
		      197     3.122	     1       0.03      98.88
		      198     3.158	     1       0.03      98.91
		      199     3.169	     1       0.03      98.94
		      200     3.169	     1       0.03      98.97
		      201     3.169	     1       0.03      99.00
		      202     3.173	     1       0.03      99.04
		      203     3.176	     1       0.03      99.07
		      204     3.178	     1       0.03      99.10
		      205     3.179	     1       0.03      99.13
		      206     3.181	     1       0.03      99.16
		      207     3.189	     1       0.03      99.19
		      208     3.198	     1       0.03      99.22
		      209     3.217	     1       0.03      99.25
		      210     3.221	     1       0.03      99.28
		      211     3.225	     1       0.03      99.31
		      212     3.230	     1       0.03      99.33
		      213     3.236	     1       0.03      99.36
		      214     3.237	     1       0.03      99.39
		      215     3.243	     1       0.03      99.42
		      216     3.255	     1       0.03      99.45
		      217     3.265	     1       0.03      99.47
		      218     3.273	     1       0.03      99.50
		      219     3.277	     1       0.03      99.53
		      220     3.282	     1       0.03      99.55
		      221     3.292	     1       0.03      99.58
		      222     3.303	     1       0.03      99.60
		      223     3.314	     1       0.02      99.63
		      224     3.331	     1       0.02      99.65
		      225     3.414	     1       0.02      99.67
		      226     3.415	     1       0.02      99.69
		      227     3.423	     1       0.02      99.71
		      228     3.424	     1       0.02      99.73
		      229     3.472	     1       0.02      99.75
		      230     3.475	     1       0.02      99.77
		      231     3.510	     1       0.02      99.79
		      232     3.544	     1       0.02      99.81
		      233     3.580	     1       0.02      99.82
		      234     3.622	     1       0.01      99.84
		      235     3.733	     1       0.01      99.85
		      236     3.742	     1       0.01      99.86
		      237     3.746	     1       0.01      99.87
		      238     3.758	     1       0.01      99.88
		      239     3.843	     1       0.01      99.89
		      240     3.844	     1       0.01      99.90
		      241     3.847	     1       0.01      99.91
		      242     3.883	     1       0.01      99.92
		      243     4.002	     1       0.01      99.93
		      244     4.055	     1       0.01      99.94
		      245     4.060	     1       0.01      99.94
		      246     4.064	     1       0.01      99.95
		      247     4.133	     1       0.01      99.96
		      248     4.154	     1       0.01      99.96
		      249     4.333	     1       0.00      99.97
		      250     4.335	     1       0.00      99.97
		      251     4.538	     1       0.00      99.98
		      252     4.619	     1       0.00      99.98
		      253     4.669	     1       0.00      99.98
		      254     4.847	     1       0.00      99.98
		      255     4.934	     1       0.00      99.98
		      256     4.998	     1       0.00      99.99
		      257     5.038	     1       0.00      99.99
		      258     5.091	     1       0.00      99.99
		      259     5.147	     1       0.00      99.99
		      260     5.155	     1       0.00      99.99
		      261     5.159	     1       0.00      99.99
		      262     5.160	     1       0.00      99.99
		      263     5.364	     1       0.00      99.99
		      264     5.444	     1       0.00      99.99
		      265     5.454	     1       0.00     100.00
		      266     5.497	     1       0.00     100.00
		      267     5.523	     1       0.00     100.00
		      268     5.645	     1       0.00     100.00
		      269     5.789	     1       0.00     100.00
		      270     5.806	     1       0.00     100.00
		      271     5.808	     1       0.00     100.00
		      272     5.809	     1       0.00     100.00
		      273     5.857	     1       0.00     100.00
		      274     5.919	     1       0.00     100.00
		      275     5.923	     1       0.00     100.00
		      276     5.924	     1       0.00     100.00
		      277     5.935	     1       0.00     100.00
		      278     5.951	     1       0.00     100.00

		Conformers below 3 kcal/mol: 189
		Lowest energy conformer    : -72.550919 Eh
		Sconf at 298.15 K          :  8.08 cal/(molK)
		Gconf at 298.15 K          : -1.61 kcal/mol

		Writing final ensemble to Naph_GOAT.finalensemble.xyz

--------------------------------
SUGGESTED CITATIONS FOR THIS RUN
--------------------------------

Below you find a list of papers that are relevant to this ORCA run
We neither can nor want to force you to cite these papers, but we appreciate if you do
You receive ORCA, which is the product of decades of hard work by many enthusiastic individuals, for free
The only thing we kindly ask in return is that you cite our papers,
We deeply appreciate it, if you show your appreciation for ORCA by not just citing the generic ORCA reference.

Please note that relegating all ORCA citations to the supporting information does *not* help us.
SI sections are not indexed - citations you put there will not count into any citation statistics
But we need these citations in order to attract the funding resources that allow us to do what we are doing

Therefore, if you are a happy ORCA user, please consider citing a few of the papers listed below in the main body of your paper

In addition to the list printed below, the program has created the file Naph_GOAT.bibtex that contains the list in bibtex format
You can import this file easily into all common literature databanks and citation aid programs


List of essential papers. We consider these as the minimum necessary citations

  1. Bannwarth,C.; Ehlert,S.; Grimme,S.
     GFN2-xTB—An Accurate and Broadly Parametrized Self-Consistent Tight-Binding Quantum Chemical Method with Multipole Electrostatics and Density-Dependent Dispersion Contributions
     J. Chem. Theory Comput., 2019 15(3)1652-1671
     doi.org/10.1021/acs.jctc.8b01176
  2. Neese,F.
     Software update: the ORCA program system, version 5.0
     WIRES Comput. Molec. Sci., 2022 12(1)e1606
     doi.org/10.1002/wcms.1606

List of papers to cite with high priority. The work reported in these papers was absolutely
necessary for this run to complete.
Our perspective: the developers of density functionals and basis sets usually get cited in chemistry papers
Good! But without the algorithms to do something with them, the functionals or basis sets would not do anything.
Hence, in our opinion, the algorithm design and method developments papers are equally worthy of getting cited

  1. Bannwarth,C.; Caldeweyher,E.; Ehlert,S.; Hansen,A.; Pracht,P.; Seibert,J.; Spicher,S.; Grimme,S.
     Extended tight-binding quantum chemistry methods
     WIRES Comput. Molec. Sci., 2020 11(2)e1493
     doi.org/10.1002/wcms.1493

List of suggested additional citations. These are papers that are important in the 'surrounding' of 
of this run, or papers that preceded the highly important papers. If you like your results we are grateful for a citation.

  1. Neese,F.
     The ORCA program system
     WIRES Comput. Molec. Sci., 2012 2(1)73-78
     doi.org/10.1002/wcms.81
  2. Neese,F.
     Software update: the ORCA program system, version 4.0
     WIRES Comput. Molec. Sci., 2018 8(1)1-6
     doi.org/10.1002/wcms.1327
  3. Neese,F.; Wennmohs,F.; Becker,U.; Riplinger,C.
     The ORCA quantum chemistry program package
     J. Chem. Phys., 2020 152 Art. No. L224108
     doi.org/10.1063/5.0004608

List of optional additional citations

  1. Neese,F.
     Approximate second-order SCF convergence for spin unrestricted wavefunctions
     Chem. Phys. Lett., 2000 325(1-3)93-98
     doi.org/10.1016/s0009-2614(00)00662-x

Timings for individual modules:

Sum of individual times          ...     1107.915 sec (=  18.465 min)
Geometry relaxation              ...        0.974 sec (=   0.016 min)   0.1 %
GOAT                             ...     1101.412 sec (=  18.357 min)  99.4 %
XTB module                       ...        5.529 sec (=   0.092 min)   0.5 %
                             ****ORCA TERMINATED NORMALLY****
TOTAL RUN TIME: 0 days 0 hours 18 minutes 36 seconds 754 msec
