 Entering Gaussian System, Link 0=g16
 Initial command:
 /home/users/sutd/1008721/g16/l1.exe "/home/users/sutd/1008721/scratch/g16/scratch/Gau-3845424.inp" -scrdir="/home/users/sutd/1008721/scratch/g16/scratch/"
 Entering Link 1 = /home/users/sutd/1008721/g16/l1.exe PID=   3845425.
  
 Copyright (c) 1988-2019, Gaussian, Inc.  All Rights Reserved.
  
 This is part of the Gaussian(R) 16 program.  It is based on
 the Gaussian(R) 09 system (copyright 2009, Gaussian, Inc.),
 the Gaussian(R) 03 system (copyright 2003, Gaussian, Inc.),
 the Gaussian(R) 98 system (copyright 1998, Gaussian, Inc.),
 the Gaussian(R) 94 system (copyright 1995, Gaussian, Inc.),
 the Gaussian 92(TM) system (copyright 1992, Gaussian, Inc.),
 the Gaussian 90(TM) system (copyright 1990, Gaussian, Inc.),
 the Gaussian 88(TM) system (copyright 1988, Gaussian, Inc.),
 the Gaussian 86(TM) system (copyright 1986, Carnegie Mellon
 University), and the Gaussian 82(TM) system (copyright 1983,
 Carnegie Mellon University). Gaussian is a federally registered
 trademark of Gaussian, Inc.
  
 This software contains proprietary and confidential information,
 including trade secrets, belonging to Gaussian, Inc.
  
 This software is provided under written license and may be
 used, copied, transmitted, or stored only in accord with that
 written license.
  
 The following legend is applicable only to US Government
 contracts under FAR:
  
                    RESTRICTED RIGHTS LEGEND
  
 Use, reproduction and disclosure by the US Government is
 subject to restrictions as set forth in subparagraphs (a)
 and (c) of the Commercial Computer Software - Restricted
 Rights clause in FAR 52.227-19.
  
 Gaussian, Inc.
 340 Quinnipiac St., Bldg. 40, Wallingford CT 06492
  
  
 ---------------------------------------------------------------
 Warning -- This program may not be used in any manner that
 competes with the business of Gaussian, Inc. or will provide
 assistance to any competitor of Gaussian, Inc.  The licensee
 of this program is prohibited from giving any competitor of
 Gaussian, Inc. access to this program.  By using this program,
 the user acknowledges that Gaussian, Inc. is engaged in the
 business of creating and licensing software in the field of
 computational chemistry and represents and warrants to the
 licensee that it is not a competitor of Gaussian, Inc. and that
 it will not use this program in any manner prohibited above.
 ---------------------------------------------------------------
  

 Cite this work as:
 Gaussian 16, Revision C.01,
 M. J. Frisch, G. W. Trucks, H. B. Schlegel, G. E. Scuseria, 
 M. A. Robb, J. R. Cheeseman, G. Scalmani, V. Barone, 
 G. A. Petersson, H. Nakatsuji, X. Li, M. Caricato, A. V. Marenich, 
 J. Bloino, B. G. Janesko, R. Gomperts, B. Mennucci, H. P. Hratchian, 
 J. V. Ortiz, A. F. Izmaylov, J. L. Sonnenberg, D. Williams-Young, 
 F. Ding, F. Lipparini, F. Egidi, J. Goings, B. Peng, A. Petrone, 
 T. Henderson, D. Ranasinghe, V. G. Zakrzewski, J. Gao, N. Rega, 
 G. Zheng, W. Liang, M. Hada, M. Ehara, K. Toyota, R. Fukuda, 
 J. Hasegawa, M. Ishida, T. Nakajima, Y. Honda, O. Kitao, H. Nakai, 
 T. Vreven, K. Throssell, J. A. Montgomery, Jr., J. E. Peralta, 
 F. Ogliaro, M. J. Bearpark, J. J. Heyd, E. N. Brothers, K. N. Kudin, 
 V. N. Staroverov, T. A. Keith, R. Kobayashi, J. Normand, 
 K. Raghavachari, A. P. Rendell, J. C. Burant, S. S. Iyengar, 
 J. Tomasi, M. Cossi, J. M. Millam, M. Klene, C. Adamo, R. Cammi, 
 J. W. Ochterski, R. L. Martin, K. Morokuma, O. Farkas, 
 J. B. Foresman, and D. J. Fox, Gaussian, Inc., Wallingford CT, 2019.
 
 ******************************************
 Gaussian 16:  ES64L-G16RevC.01  3-Jul-2019
                10-Oct-2025 
 ******************************************
 %nprocshared=32
 Will use up to   32 processors via shared memory.
 %mem=64GB
 %chk=02BN-1_ethanol_m062x_m062x_m062x.chk
 ---------------------------------------------------------
 # td=(nstates=6) scrf=(smd,solvent=ethanol) def2svp m062x
 ---------------------------------------------------------
 1/38=1,172=1/1;
 2/12=2,17=6,18=5,40=1/2;
 3/5=43,7=101,11=9,25=1,30=1,70=32201,72=4,74=-55/1,2,3,8;
 4//1;
 5/5=2,38=5,53=4/2;
 8/6=1,10=1,108=6/1;
 9/41=6,42=1,70=2/14;
 6/7=2,8=2,9=2,10=2/1;
 99/5=1,9=1/99;
 --------------------------------
 BN-1_ethanol_m062x_m062x_m062x
 --------------------------------
 Symbolic Z-matrix:
 Charge =  0 Multiplicity = 1
 C                     7.17737   0.76545   0.40989 
 H                     7.27752   1.62656   1.08611 
 H                     7.24403   1.13048  -0.62511 
 H                     8.03781   0.08703   0.59038 
 C                     1.14973   0.57213  -0.3302 
 C                    -0.25763   0.38186  -0.40663 
 C                    -0.80962  -0.91804  -0.53592 
 C                    -1.11461   1.50947  -0.34649 
 C                     2.01782  -0.59192  -0.38101 
 C                     1.64607   1.89136  -0.21039 
 H                     2.72005   2.07964  -0.16281 
 C                     1.42993  -1.86372  -0.509 
 H                     2.06114  -2.75003  -0.54263 
 C                    -2.58472   1.32874  -0.41672 
 N                    -3.05769   0.03606  -0.5961 
 C                     0.04645  -2.01108  -0.58383 
 H                    -0.38374  -3.00996  -0.67931 
 C                     0.79276   2.97761  -0.15605 
 H                     1.19972   3.985    -0.06431 
 N                     3.35257  -0.4448   -0.31538 
 H                     3.75641   0.45391  -0.06674 
 C                    -0.59739   2.78605  -0.22049 
 H                    -1.28138   3.63487  -0.17631 
 C                    -2.25782  -1.11409  -0.61472 
 O                    -3.36006   2.26572  -0.32903 
 O                    -2.78314  -2.21366  -0.69773 
 C                     4.29447  -1.54098  -0.27851 
 H                     4.15341  -2.19942  -1.14976 
 H                     4.13487  -2.16196   0.62118 
 N                     5.90196   0.10995   0.62682 
 C                     5.7097   -0.97839  -0.31795 
 H                     6.42425  -1.81071  -0.14557 
 H                     5.90511  -0.58332  -1.32689 
 C                     5.7668   -0.3255    2.00461 
 H                     4.75364  -0.70645   2.19795 
 H                     5.93538   0.52603   2.67891 
 H                     6.49363  -1.12265   2.26916 
 C                    -4.50902  -0.14803  -0.66881 
 H                    -4.69606  -1.02364  -1.30084 
 H                    -4.92717   0.73633  -1.1636 
 C                    -5.13987  -0.3383    0.70512 
 H                    -4.68042  -1.21511   1.19132 
 H                    -4.90845   0.53998   1.33075 
 C                    -6.65045  -0.52775   0.62073 
 H                    -7.09692   0.34627   0.11751 
 H                    -6.87045  -1.39821  -0.01985 
 C                    -7.29451  -0.71889   1.98782 
 H                    -8.38275  -0.85436   1.90601 
 H                    -6.88284  -1.60385   2.49731 
 H                    -7.11178   0.15277   2.63515 
 
                          Input orientation:                          
 ---------------------------------------------------------------------
 Center     Atomic      Atomic             Coordinates (Angstroms)
 Number     Number       Type             X           Y           Z
 ---------------------------------------------------------------------
      1          6           0        7.177374    0.765446    0.409885
      2          1           0        7.277517    1.626558    1.086114
      3          1           0        7.244027    1.130480   -0.625110
      4          1           0        8.037806    0.087028    0.590375
      5          6           0        1.149733    0.572127   -0.330195
      6          6           0       -0.257634    0.381858   -0.406629
      7          6           0       -0.809616   -0.918042   -0.535917
      8          6           0       -1.114613    1.509472   -0.346494
      9          6           0        2.017815   -0.591923   -0.381010
     10          6           0        1.646068    1.891363   -0.210393
     11          1           0        2.720053    2.079637   -0.162810
     12          6           0        1.429926   -1.863715   -0.508998
     13          1           0        2.061138   -2.750025   -0.542634
     14          6           0       -2.584722    1.328735   -0.416721
     15          7           0       -3.057689    0.036059   -0.596104
     16          6           0        0.046453   -2.011079   -0.583830
     17          1           0       -0.383735   -3.009959   -0.679314
     18          6           0        0.792760    2.977612   -0.156050
     19          1           0        1.199718    3.984997   -0.064313
     20          7           0        3.352571   -0.444795   -0.315375
     21          1           0        3.756412    0.453906   -0.066743
     22          6           0       -0.597387    2.786045   -0.220493
     23          1           0       -1.281376    3.634869   -0.176311
     24          6           0       -2.257823   -1.114093   -0.614720
     25          8           0       -3.360061    2.265715   -0.329028
     26          8           0       -2.783142   -2.213657   -0.697727
     27          6           0        4.294466   -1.540981   -0.278511
     28          1           0        4.153410   -2.199421   -1.149761
     29          1           0        4.134867   -2.161962    0.621177
     30          7           0        5.901958    0.109953    0.626819
     31          6           0        5.709698   -0.978387   -0.317945
     32          1           0        6.424252   -1.810710   -0.145573
     33          1           0        5.905106   -0.583324   -1.326893
     34          6           0        5.766804   -0.325496    2.004607
     35          1           0        4.753640   -0.706454    2.197947
     36          1           0        5.935378    0.526025    2.678909
     37          1           0        6.493634   -1.122651    2.269163
     38          6           0       -4.509019   -0.148025   -0.668814
     39          1           0       -4.696055   -1.023636   -1.300841
     40          1           0       -4.927168    0.736334   -1.163597
     41          6           0       -5.139873   -0.338303    0.705121
     42          1           0       -4.680424   -1.215114    1.191315
     43          1           0       -4.908450    0.539983    1.330750
     44          6           0       -6.650445   -0.527747    0.620725
     45          1           0       -7.096923    0.346273    0.117511
     46          1           0       -6.870446   -1.398205   -0.019849
     47          6           0       -7.294508   -0.718893    1.987823
     48          1           0       -8.382754   -0.854364    1.906012
     49          1           0       -6.882838   -1.603847    2.497314
     50          1           0       -7.111779    0.152768    2.635151
 ---------------------------------------------------------------------
                    Distance matrix (angstroms):
                    1          2          3          4          5
     1  C    0.000000
     2  H    1.099467   0.000000
     3  H    1.099503   1.781994   0.000000
     4  H    1.110482   1.787162   1.787815   0.000000
     5  C    6.075981   6.377107   6.126920   6.966227   0.000000
     6  C    7.489538   7.781777   7.542088   8.360339   1.422226
     7  C    8.217097   8.631784   8.310569   8.975276   2.470217
     8  C    8.359589   8.514336   8.371865   9.309557   2.450744
     9  C    5.393423   5.893944   5.508135   6.135540   1.452983
    10  C    5.678713   5.784831   5.664634   6.689631   1.414597
    11  H    4.682178   4.747164   4.645531   5.728549   2.183234
    12  C    6.386704   6.994334   6.540830   6.976969   2.458415
    13  H    6.280263   7.001279   6.475142   6.712164   3.451447
    14  C    9.813210   9.980530   9.832957  10.742168   3.811312
    15  N   10.310215  10.591318  10.359727  11.158868   4.249762
    16  C    7.716644   8.264950   7.853418   8.345210   2.820374
    17  H    8.521174   9.127366   8.679224   9.062328   3.912128
    18  C    6.780653   6.739465   6.726868   7.836027   2.438055
    19  H    6.806081   6.620072   6.707938   7.898242   3.423576
    20  N    4.076739   4.654017   4.209615   4.801525   2.426282
    21  H    3.468027   3.886177   3.596246   4.347038   2.622624
    22  C    8.057736   8.066334   8.024487   9.083433   2.822392
    23  H    8.951406   8.881536   8.896959  10.001107   3.913357
    24  C    9.674990  10.066117   9.763369  10.435273   3.812575
    25  O   10.669317  10.750312  10.668791  11.640591   4.817311
    26  O   10.455321  10.915411  10.570366  11.137561   4.833547
    27  C    3.755616   4.560055   3.994589   4.173484   3.789095
    28  H    4.513013   5.421927   4.573337   4.831610   4.168362
    29  H    4.227435   4.944219   4.696837   4.504646   4.158290
    30  N    1.450316   2.098382   2.099988   2.136282   4.869612
    31  C    2.392648   3.348907   2.625992   2.716660   4.816381
    32  H    2.740859   3.749657   3.090726   2.597419   5.790729
    33  H    2.540520   3.548196   2.285242   2.945114   4.994201
    34  C    2.392279   2.633704   3.349248   2.706968   5.251131
    35  H    3.352334   3.612350   4.188795   3.741610   4.584148
    36  H    2.597758   2.355739   3.604784   2.995813   5.653250
    37  H    2.736663   3.093902   3.743862   2.581883   6.179499
    38  C   11.771568  12.047877  11.822461  12.612043   5.714434
    39  H   12.128714  12.493499  12.151641  12.921358   6.136925
    40  H   12.206418  12.442188  12.189475  13.099182   6.135980
    41  C   12.370125  12.577655  12.541444  13.185041   6.438937
    42  H   12.047432  12.291400  12.287951  12.798831   6.284899
    43  H   12.122952  12.236760  12.323018  12.975318   6.281827
    44  C   13.889758  14.101267  14.048422  14.701142   7.934529
    45  H   14.283443  14.463812  14.381562  15.144333   8.261888
    46  H   14.219961  14.509900  14.351966  14.994475   8.264490
    47  C   14.633131  14.787093  14.886793  15.416946   8.851279
    48  H   15.715590  15.876753  15.954387  16.500058   9.894635
    49  H   14.410429  14.592555  14.723939  15.136746   8.789304
    50  H   14.474359  14.547282  14.753792  15.287098   8.787589
                    6          7          8          9         10
     6  C    0.000000
     7  C    1.418147   0.000000
     8  C    1.417583   2.453921   0.000000
     9  C    2.475192   2.850389   3.772156   0.000000
    10  C    2.437457   3.745545   2.790291   2.516747   0.000000
    11  H    3.436353   4.645842   3.881171   2.770917   1.091400
    12  C    2.810860   2.431166   4.228413   1.406929   3.773128
    13  H    3.899217   3.405501   5.316689   2.164579   4.671739
    14  C    2.512373   2.865871   1.482841   4.987339   4.273021
    15  N    2.827682   2.442901   2.451284   5.118727   5.071120
    16  C    2.418681   1.389201   3.714658   2.437500   4.234062
    17  H    3.405096   2.139639   4.590230   3.421012   5.325687
    18  C    2.811415   4.229424   2.414493   3.780601   1.382398
    19  H    3.901752   5.319739   3.400585   4.660234   2.145663
    20  N    3.704762   4.194807   4.876050   1.344443   2.894963
    21  H    4.029054   4.790718   4.991930   2.053105   2.557434
    22  C    2.435199   3.723546   1.383126   4.275011   2.415295
    23  H    3.418066   4.591391   2.138711   5.365849   3.407478
    24  C    2.506377   1.463540   2.874364   4.313741   4.943340
    25  O    3.630426   4.084591   2.369440   6.090185   5.021508
    26  O    3.633129   2.366349   4.095002   5.077354   6.058596
    27  C    4.943211   5.148394   6.210316   2.468675   4.335855
    28  H    5.164548   5.162399   6.492549   2.781330   4.889140
    29  H    5.178945   5.228204   6.478646   2.819807   4.828568
    30  N    6.251601   6.888683   7.220683   4.073686   4.689024
    31  C    6.121044   6.523236   7.263710   3.712591   4.975954
    32  H    7.037265   7.299183   8.240052   4.577943   6.044881
    33  H    6.305381   6.769429   7.390361   4.000725   5.050748
    34  C    6.527500   7.074933   7.499912   4.451637   5.176983
    35  H    5.751618   6.202306   6.769114   3.761499   4.712299
    36  H    6.920602   7.610215   7.734507   5.095116   5.348868
    37  H    7.416403   7.826097   8.464937   5.228580   6.223454
    38  C    4.292294   3.781028   3.791198   6.548239   6.500335
    39  H    4.740739   3.962407   4.489336   6.790325   7.064617
    40  H    4.743754   4.481649   3.975044   7.114035   6.741671
    41  C    5.058743   4.541740   4.552240   7.244067   7.201290
    42  H    4.966368   4.249087   4.743757   6.908472   7.186062
    43  H    4.967251   4.733996   4.259842   7.223883   6.867536
    44  C    6.538415   5.967029   5.977559   8.726186   8.681876
    45  H    6.859436   6.446370   6.111985   9.176447   8.884521
    46  H    6.859118   6.101684   6.456849   8.932061   9.131735
    47  C    7.514163   6.961519   6.971782   9.609727   9.569717
    48  H    8.537806   7.957355   7.967897  10.652285  10.611101
    49  H    7.501282   6.823111   7.145098   9.409058   9.606790
    50  H    7.502280   7.135795   6.833510   9.643717   9.371217
                   11         12         13         14         15
    11  H    0.000000
    12  C    4.163448   0.000000
    13  H    4.889179   1.088625   0.000000
    14  C    5.363671   5.130073   6.183539   0.000000
    15  N    6.143798   4.873953   5.828165   1.388124   0.000000
    16  C    4.905033   1.393310   2.146321   4.255040   3.718417
    17  H    5.983666   2.152266   2.462448   4.872121   4.054033
    18  C    2.126232   4.895815   5.879120   3.767510   4.865423
    19  H    2.439573   5.870108   6.806714   4.637015   5.831160
    20  N    2.606935   2.397371   2.652081   6.197348   6.434397
    21  H    1.930355   3.313532   3.655899   6.410756   6.847393
    22  C    3.392307   5.080699   6.149764   2.472197   3.708988
    23  H    4.293060   6.139728   7.216195   2.659842   4.035213
    24  C    5.931558   3.764652   4.618971   2.472544   1.401065
    25  O    6.085231   6.326813   7.388686   1.219333   2.265861
    26  O    7.000262   4.231787   4.876350   3.559055   2.268684
    27  C    3.949815   2.891863   2.553292   7.455039   7.526095
    28  H    4.619407   2.817914   2.247080   7.641182   7.569931
    29  H    4.539548   2.946685   2.449618   7.642975   7.618788
    30  N    3.824616   5.018418   4.929401   8.637022   9.043024
    31  C    4.279434   4.374558   4.062164   8.609876   8.830263
    32  H    5.371796   5.007812   4.480707   9.544174   9.670612
    33  H    4.311730   4.726054   4.481712   8.749946   9.013844
    34  C    4.445790   5.243361   5.108692   8.851401   9.206851
    35  H    4.179827   4.440031   4.351613   8.051710   8.329160
    36  H    4.563704   6.014375   6.010040   9.100515   9.583373
    37  H    5.514441   5.823100   5.495595   9.779561  10.038931
    38  C    7.581425   6.183866   7.067764   2.438707   1.464764
    39  H    8.119364   6.233810   7.015337   3.282232   2.074572
    40  H    7.828539   6.899377   7.834329   2.528995   2.075424
    41  C    8.269110   6.852972   7.695964   3.250591   2.483712
    42  H    8.213166   6.375588   7.128197   3.667276   2.719112
    43  H    7.924349   7.024062   7.931512   3.012556   2.718827
    44  C    9.758002   8.267616   9.065517   4.588346   3.834898
    45  H    9.972770   8.830839   9.689837   4.648720   4.113501
    46  H   10.202622   8.327793   9.048421   5.095207   4.114158
    47  C   10.618306   9.146610   9.902364   5.670687   5.019688
    48  H   11.668792  10.155774  10.893313   6.616509   5.950610
    49  H   10.623551   8.843500   9.515761   5.963677   5.185585
    50  H   10.402227   9.322693  10.132469   5.584896   5.185583
                   16         17         18         19         20
    16  C    0.000000
    17  H    1.091760   0.000000
    18  C    5.062312   6.124455   0.000000
    19  H    6.128038   7.198261   1.090346   0.000000
    20  N    3.668205   4.546702   4.276785   4.931619   0.000000
    21  H    4.484119   5.432718   3.893623   4.359506   1.016154
    22  C    4.853755   5.818060   1.404763   2.165979   5.103871
    23  H    5.814287   6.724025   2.175876   2.508179   6.175473
    24  C    2.472898   2.666587   5.124303   6.185326   5.658099
    25  O    5.473594   6.067450   4.216947   4.880327   7.239232
    26  O    2.839123   2.528159   6.326908   7.395113   6.397034
    27  C    4.284837   4.919767   5.717921   6.337174   1.445735
    28  H    4.150042   4.632923   6.251648   6.938986   2.101489
    29  H    4.264966   4.777880   6.179723   6.846174   2.106604
    30  N    6.344398   7.137911   5.911028   6.132266   2.773959
    31  C    5.762768   6.433335   6.312877   6.711142   2.416769
    32  H    6.395978   6.933380   7.392012   7.803370   3.365974
    33  H    6.075726   6.771812   6.339339   6.678648   2.749144
    34  C    6.501047   7.227649   6.349809   6.612039   3.350384
    35  H    5.621204   6.322767   5.899340   6.305386   2.889333
    36  H    7.194567   7.981982   6.363473   6.474274   4.071747
    37  H    7.105985   7.717101   7.429252   7.717430   4.123785
    38  C    4.922450   5.020831   6.175872   7.073682   7.875125
    39  H    4.896992   4.788306   6.888223   7.834255   8.129365
    40  H    5.711507   5.908640   6.225436   7.021465   8.406463
    41  C    5.599781   5.628077   6.850769   7.711898   8.554201
    42  H    5.111562   5.018193   7.024962   7.949454   8.209294
    43  H    5.892758   6.092248   6.376238   7.150108   8.480801
    44  C    6.964170   6.864629   8.263911   9.080705  10.047064
    45  H    7.554919   7.547590   8.321411   9.061326  10.488332
    46  H    6.966863   6.716403   8.825591   9.700948  10.271631
    47  C    7.884976   7.753798   9.146816   9.924199  10.896795
    48  H    8.865034   8.678410  10.155107  10.914457  11.950739
    49  H    7.594364   7.369291   9.324426  10.155039  10.677931
    50  H    8.141521   8.139723   8.846032   9.542225  10.888770
                   21         22         23         24         25
    21  H    0.000000
    22  C    4.941465   0.000000
    23  H    5.959013   1.091007   0.000000
    24  C    6.239385   4.257175   4.868089   0.000000
    25  O    7.348172   2.813342   2.493760   3.566462   0.000000
    26  O    7.090825   5.477435   6.060729   1.221430   4.531396
    27  C    2.076998   6.531213   7.608540   6.574782   8.548992
    28  H    2.893213   6.948991   8.032649   6.524424   8.778570
    29  H    2.731159   6.898218   7.973389   6.594843   8.756778
    30  N    2.280943   7.079611   8.041787   8.343964   9.557507
    31  C    2.435137   7.345731   8.377190   7.974201   9.632489
    32  H    3.500296   8.392805   9.435676   8.722603  10.601117
    33  H    2.698279   7.406699   8.412046   8.211109   9.744541
    34  C    2.989922   7.425341   8.373633   8.478054   9.770358
    35  H    2.733079   6.832268   7.804204   7.565572   9.002863
    36  H    3.505952   7.496082   8.360546   8.981454   9.923678
    37  H    3.928660   8.471061   9.437432   9.214383  10.739037
    38  C    8.309161   4.910257   4.997052   2.450326   2.694754
    39  H    8.668929   5.699114   5.884409   2.534545   3.680914
    40  H    8.757135   4.882393   4.761096   3.294047   2.343360
    41  C    8.964779   5.590393   5.608121   3.263440   3.319353
    42  H    8.691866   5.888435   6.078344   3.023403   4.021315
    43  H    8.777256   5.102589   5.000522   3.680577   2.851407
    44  C   10.475635   6.951861   6.840288   4.600571   4.419512
    45  H   10.855433   6.950590   6.687435   5.107418   4.224665
    46  H   10.787151   7.543174   7.522900   4.659494   5.083572
    47  C   11.301307   7.874813   7.732818   5.683099   5.454865
    48  H   12.367808   8.853617   8.655568   6.628448   6.321214
    49  H   11.135635   8.134158   8.122117   5.596015   5.947409
    50  H   11.203057   7.584600   7.350030   5.977247   5.227455
                   26         27         28         29         30
    26  O    0.000000
    27  C    7.121852   0.000000
    28  H    6.951280   1.101143   0.000000
    29  H    7.042800   1.104775   1.771431   0.000000
    30  N    9.087604   2.475729   3.398068   2.878236   0.000000
    31  C    8.590603   1.523466   2.145897   2.182405   1.453969
    32  H    9.232732   2.150910   2.513208   2.439788   2.135024
    33  H    8.862251   2.147178   2.389892   3.069336   2.073073
    34  C    9.163478   2.976207   4.008076   2.819522   1.451269
    35  H    8.213384   2.653323   3.714347   2.233291   2.110355
    36  H    9.742696   3.963766   5.026150   3.834237   2.094112
    37  H    9.800577   3.391457   4.280785   3.059380   2.136981
    38  C    2.691900   8.921548   8.914999   8.968656  10.494459
    39  H    2.332195   9.063237   8.928512   9.109068  10.831379
    40  H    3.676456   9.539815   9.543361   9.680187  10.993994
    41  C    3.322517   9.561418   9.657611   9.452702  11.051203
    42  H    2.857490   9.100287   9.191633   8.884308  10.679947
    43  H    4.026684   9.571510   9.786449   9.464966  10.841834
    44  C    4.420027  11.028433  11.074854  10.908419  12.568593
    45  H    5.081984  11.553454  11.604160  11.519463  13.011001
    46  H    4.222622  11.168820  11.110538  11.050392  12.877384
    47  C    5.458839  11.837078  11.962074  11.600896  13.292330
    48  H    6.323195  12.882371  12.973139  12.651144  14.374256
    49  H    5.233322  11.517000  11.638498  11.190228  13.034066
    50  H    5.953582  11.893723  12.114571  11.657663  13.167862
                   31         32         33         34         35
    31  C    0.000000
    32  H    1.110433   0.000000
    33  H    1.101015   1.780872   0.000000
    34  C    2.413250   2.694693   3.344323   0.000000
    35  H    2.705126   3.082598   3.710193   1.099550   0.000000
    36  H    3.360851   3.698246   4.156684   1.099176   1.773932
    37  H    2.707119   2.511810   3.683593   1.110733   1.790495
    38  C   10.258401  11.071347  10.443972  10.619379   9.712209
    39  H   10.452169  11.207826  10.610333  10.994763  10.081610
    40  H   10.807327  11.678122  10.913584  11.203840  10.348897
    41  C   10.916481  11.688484  11.233017  10.983826  10.012276
    42  H   10.501835  11.200707  10.899265  10.516532   9.501242
    43  H   10.852129  11.667709  11.191867  10.731458   9.780676
    44  C   12.403923  13.159822  12.705832  12.495764  11.514023
    45  H   12.882309  13.694669  13.114999  13.018751  12.077760
    46  H   12.590676  13.301690  12.868066  12.843256  11.853966
    47  C   13.209590  13.926515  13.610126  13.067246  12.049987
    48  H   14.267395  14.979020  14.651556  14.159782  13.140470
    49  H   12.918547  13.568577  13.386468  12.723615  11.674869
    50  H   13.205702  13.957500  13.626405  12.902877  11.904519
                   36         37         38         39         40
    36  H    0.000000
    37  H    1.788204   0.000000
    38  C   10.988495  11.429785   0.000000
    39  H   11.457191  11.745802   1.095963   0.000000
    40  H   11.524061  12.069564   1.096243   1.780377   0.000000
    41  C   11.282911  11.764349   1.523772   2.165765   2.166148
    42  H   10.860007  11.226303   2.151311   2.499550   3.068329
    43  H   10.927320  11.560817   2.152012   3.068434   2.502133
    44  C   12.796464  13.260395   2.528400   2.785312   2.784132
    45  H   13.282844  13.838012   2.749524   3.106854   2.549749
    46  H   13.227815  13.561495   2.749626   2.551317   3.104955
    47  C   13.306288  13.796921   3.891344   4.202397   4.201599
    48  H   14.405268  14.883238   4.704728   4.889203   4.888138
    49  H   12.995230  13.387069   4.216492   4.420933   4.764804
    50  H   13.052568  13.669964   4.216755   4.765677   4.420810
                   41         42         43         44         45
    41  C    0.000000
    42  H    1.102849   0.000000
    43  H    1.102885   1.775332   0.000000
    44  C    1.524742   2.163106   2.163037   0.000000
    45  H    2.154988   3.070904   2.509758   1.102941   0.000000
    46  H    2.154961   2.509310   3.070850   1.102920   1.764472
    47  C    2.536262   2.777426   2.776650   1.523257   2.161408
    48  H    3.496389   3.787899   3.787601   2.181636   2.508710
    49  H    2.802050   2.589860   3.139281   2.175680   3.084196
    50  H    2.802602   3.141218   2.589605   2.175739   2.525109
                   46         47         48         49         50
    46  H    0.000000
    47  C    2.161490   0.000000
    48  H    2.508342   1.099693   0.000000
    49  H    2.525579   1.100998   1.777951   0.000000
    50  H    3.084280   1.101007   1.778015   1.776826   0.000000
 Stoichiometry    C20H25N3O2
 Framework group  C1[X(C20H25N3O2)]
 Deg. of freedom   144
 Full point group                 C1      NOp   1
 Largest Abelian subgroup         C1      NOp   1
 Largest concise Abelian subgroup C1      NOp   1
                         Standard orientation:                         
 ---------------------------------------------------------------------
 Center     Atomic      Atomic             Coordinates (Angstroms)
 Number     Number       Type             X           Y           Z
 ---------------------------------------------------------------------
      1          6           0        7.177374    0.765446    0.409885
      2          1           0        7.277517    1.626558    1.086114
      3          1           0        7.244027    1.130480   -0.625110
      4          1           0        8.037806    0.087028    0.590375
      5          6           0        1.149733    0.572127   -0.330195
      6          6           0       -0.257634    0.381858   -0.406629
      7          6           0       -0.809616   -0.918042   -0.535917
      8          6           0       -1.114613    1.509472   -0.346494
      9          6           0        2.017815   -0.591923   -0.381010
     10          6           0        1.646068    1.891363   -0.210393
     11          1           0        2.720053    2.079637   -0.162810
     12          6           0        1.429926   -1.863715   -0.508998
     13          1           0        2.061138   -2.750025   -0.542634
     14          6           0       -2.584722    1.328735   -0.416721
     15          7           0       -3.057689    0.036059   -0.596104
     16          6           0        0.046453   -2.011079   -0.583830
     17          1           0       -0.383735   -3.009959   -0.679314
     18          6           0        0.792760    2.977612   -0.156050
     19          1           0        1.199718    3.984997   -0.064313
     20          7           0        3.352571   -0.444795   -0.315375
     21          1           0        3.756412    0.453906   -0.066743
     22          6           0       -0.597387    2.786045   -0.220493
     23          1           0       -1.281376    3.634869   -0.176311
     24          6           0       -2.257823   -1.114093   -0.614720
     25          8           0       -3.360061    2.265715   -0.329028
     26          8           0       -2.783142   -2.213657   -0.697727
     27          6           0        4.294466   -1.540981   -0.278511
     28          1           0        4.153410   -2.199421   -1.149761
     29          1           0        4.134867   -2.161962    0.621177
     30          7           0        5.901958    0.109953    0.626819
     31          6           0        5.709698   -0.978387   -0.317945
     32          1           0        6.424252   -1.810710   -0.145573
     33          1           0        5.905106   -0.583324   -1.326893
     34          6           0        5.766804   -0.325496    2.004607
     35          1           0        4.753640   -0.706454    2.197947
     36          1           0        5.935378    0.526025    2.678909
     37          1           0        6.493634   -1.122651    2.269163
     38          6           0       -4.509019   -0.148025   -0.668814
     39          1           0       -4.696055   -1.023636   -1.300841
     40          1           0       -4.927168    0.736334   -1.163597
     41          6           0       -5.139873   -0.338303    0.705121
     42          1           0       -4.680424   -1.215114    1.191315
     43          1           0       -4.908450    0.539983    1.330750
     44          6           0       -6.650445   -0.527747    0.620725
     45          1           0       -7.096923    0.346273    0.117511
     46          1           0       -6.870446   -1.398205   -0.019849
     47          6           0       -7.294508   -0.718893    1.987823
     48          1           0       -8.382754   -0.854364    1.906012
     49          1           0       -6.882838   -1.603847    2.497314
     50          1           0       -7.111779    0.152768    2.635151
 ---------------------------------------------------------------------
 Rotational constants (GHZ):           0.5455977           0.0883376           0.0811204
 Standard basis: def2SVP (5D, 7F)
 There are   500 symmetry adapted cartesian basis functions of A   symmetry.
 There are   475 symmetry adapted basis functions of A   symmetry.
   475 basis functions,   800 primitive gaussians,   500 cartesian basis functions
    91 alpha electrons       91 beta electrons
       nuclear repulsion energy      2130.0783397216 Hartrees.
 NAtoms=   50 NActive=   50 NUniq=   50 SFac= 1.00D+00 NAtFMM=   60 NAOKFM=F Big=F
 Integral buffers will be    131072 words long.
 Regular integral format.
 Two-electron integral symmetry is turned on.
 ------------------------------------------------------------------------------
 Polarizable Continuum Model (PCM)
 =================================
 Model                : PCM.
 Atomic radii         : SMD-Coulomb.
 Polarization charges : Total charges.
 Charge compensation  : None.
 Solution method      : On-the-fly selection.
 Cavity type          : VdW (van der Waals Surface) (Alpha=1.000).
 Cavity algorithm     : GePol (No added spheres)
                        Default sphere list used, NSphG=   50.
                        Lebedev-Laikov grids with approx.  5.0 points / Ang**2.
                        Smoothing algorithm: York/Karplus (Gamma=1.0000).
                        Polarization charges: spherical gaussians, with
                                              point-specific exponents (IZeta= 3).
                        Self-potential: point-specific (ISelfS= 7).
                        Self-field    : sphere-specific E.n sum rule (ISelfD= 2).
 Solvent              : Ethanol, Eps=  24.852000 Eps(inf)=   1.852593
 ------------------------------------------------------------------------------
 ------------------------------------------------------------------------------
 Atomic radii for non-electrostatic terms: SMD-CDS.
 ------------------------------------------------------------------------------
 Nuclear repulsion after PCM non-electrostatic terms =     2130.0753088872 Hartrees.
 One-electron integrals computed using PRISM.
   1 Symmetry operations used in ECPInt.
 ECPInt:  NShTT=   25425 NPrTT=   90925 LenC2=   20297 LenP2D=   49158.
 LDataN:  DoStor=T MaxTD1= 4 Len=   56
 NBasis=   475 RedAO= T EigKep=  2.11D-04  NBF=   475
 NBsUse=   475 1.00D-06 EigRej= -1.00D+00 NBFU=   475
 ExpMin= 1.22D-01 ExpMax= 2.27D+03 ExpMxC= 3.41D+02 IAcc=3 IRadAn=         5 AccDes= 0.00D+00
 Harris functional with IExCor= 1009 and IRadAn=       5 diagonalized for initial guess.
 HarFok:  IExCor= 1009 AccDes= 0.00D+00 IRadAn=         5 IDoV= 1 UseB2=F ITyADJ=14
 ICtDFT=  3500011 ScaDFX=  1.000000  1.000000  1.000000  1.000000
 FoFCou: FMM=F IPFlag=           0 FMFlag=      100000 FMFlg1=           0
         NFxFlg=           0 DoJE=T BraDBF=F KetDBF=T FulRan=T
         wScrn=  0.000000 ICntrl=       500 IOpCl=  0 I1Cent=   200000004 NGrid=           0
         NMat0=    1 NMatS0=      1 NMatT0=    0 NMatD0=    1 NMtDS0=    0 NMtDT0=    0
 Petite list used in FoFCou.
 Requested convergence on RMS density matrix=1.00D-08 within 128 cycles.
 Requested convergence on MAX density matrix=1.00D-06.
 Requested convergence on             energy=1.00D-06.
 No special actions if energy rises.
 Inv3:  Mode=1 IEnd=    36960300.
 Iteration    1 A*A^-1 deviation from unit magnitude is 6.22D-15 for   3498.
 Iteration    1 A*A^-1 deviation from orthogonality  is 2.70D-15 for   1987    609.
 Iteration    1 A^-1*A deviation from unit magnitude is 6.22D-15 for   3498.
 Iteration    1 A^-1*A deviation from orthogonality  is 8.77D-15 for   3237   3200.
 Error on total polarization charges =  0.06324
 SCF Done:  E(RM062X) =  -1090.70755753     A.U. after   14 cycles
            NFock= 14  Conv=0.40D-08     -V/T= 2.0106
 SMD-CDS (non-electrostatic) energy       (kcal/mol) =      -1.90
 (included in total energy above)
 DoSCS=F DFT=T ScalE2(SS,OS)=  1.000000  1.000000
 ExpMin= 1.22D-01 ExpMax= 2.27D+03 ExpMxC= 3.41D+02 IAcc=3 IRadAn=         5 AccDes= 0.00D+00
 HarFok:  IExCor=  205 AccDes= 0.00D+00 IRadAn=         5 IDoV=-2 UseB2=F ITyADJ=14
 ICtDFT= 12500011 ScaDFX=  1.000000  1.000000  1.000000  1.000000
 GSVD:  LWork=        -825 too small for GESVD, short by        3500 words or        3500 for optimal perf.
 Range of M.O.s used for correlation:    26   475
 NBasis=   475 NAE=    91 NBE=    91 NFC=    25 NFV=     0
 NROrb=    450 NOA=    66 NOB=    66 NVA=   384 NVB=   384

 **** Warning!!: The largest alpha MO coefficient is  0.12918973D+02

 NEqPCM:  Using non-equilibrium solvation (IEInf=1, Eps=  24.8520, EpsInf=   1.8526)
 Inv3:  Mode=1 IEnd=    36960300.
 Iteration    1 A*A^-1 deviation from unit magnitude is 5.22D-15 for   3469.
 Iteration    1 A*A^-1 deviation from orthogonality  is 2.78D-15 for   2943    167.
 Iteration    1 A^-1*A deviation from unit magnitude is 5.33D-15 for   3469.
 Iteration    1 A^-1*A deviation from orthogonality  is 2.32D-15 for   3486   2785.
 Orbital symmetries:
       Occupied  (A) (A) (A) (A) (A) (A) (A) (A) (A) (A) (A) (A)
                 (A) (A) (A) (A) (A) (A) (A) (A) (A) (A) (A) (A)
                 (A) (A) (A) (A) (A) (A) (A) (A) (A) (A) (A) (A)
                 (A) (A) (A) (A) (A) (A) (A) (A) (A) (A) (A) (A)
                 (A) (A) (A) (A) (A) (A) (A) (A) (A) (A) (A) (A)
                 (A) (A) (A) (A) (A) (A) (A) (A) (A) (A) (A) (A)
                 (A) (A) (A) (A) (A) (A) (A) (A) (A) (A) (A) (A)
                 (A) (A) (A) (A) (A) (A) (A)
       Virtual   (A) (A) (A) (A) (A) (A) (A) (A) (A) (A) (A) (A)
                 (A) (A) (A) (A) (A) (A) (A) (A) (A) (A) (A) (A)
                 (A) (A) (A) (A) (A) (A) (A) (A) (A) (A) (A) (A)
                 (A) (A) (A) (A) (A) (A) (A) (A) (A) (A) (A) (A)
                 (A) (A) (A) (A) (A) (A) (A) (A) (A) (A) (A) (A)
                 (A) (A) (A) (A) (A) (A) (A) (A) (A) (A) (A) (A)
                 (A) (A) (A) (A) (A) (A) (A) (A) (A) (A) (A) (A)
                 (A) (A) (A) (A) (A) (A) (A) (A) (A) (A) (A) (A)
                 (A) (A) (A) (A) (A) (A) (A) (A) (A) (A) (A) (A)
                 (A) (A) (A) (A) (A) (A) (A) (A) (A) (A) (A) (A)
                 (A) (A) (A) (A) (A) (A) (A) (A) (A) (A) (A) (A)
                 (A) (A) (A) (A) (A) (A) (A) (A) (A) (A) (A) (A)
                 (A) (A) (A) (A) (A) (A) (A) (A) (A) (A) (A) (A)
                 (A) (A) (A) (A) (A) (A) (A) (A) (A) (A) (A) (A)
                 (A) (A) (A) (A) (A) (A) (A) (A) (A) (A) (A) (A)
                 (A) (A) (A) (A) (A) (A) (A) (A) (A) (A) (A) (A)
                 (A) (A) (A) (A) (A) (A) (A) (A) (A) (A) (A) (A)
                 (A) (A) (A) (A) (A) (A) (A) (A) (A) (A) (A) (A)
                 (A) (A) (A) (A) (A) (A) (A) (A) (A) (A) (A) (A)
                 (A) (A) (A) (A) (A) (A) (A) (A) (A) (A) (A) (A)
                 (A) (A) (A) (A) (A) (A) (A) (A) (A) (A) (A) (A)
                 (A) (A) (A) (A) (A) (A) (A) (A) (A) (A) (A) (A)
                 (A) (A) (A) (A) (A) (A) (A) (A) (A) (A) (A) (A)
                 (A) (A) (A) (A) (A) (A) (A) (A) (A) (A) (A) (A)
                 (A) (A) (A) (A) (A) (A) (A) (A) (A) (A) (A) (A)
                 (A) (A) (A) (A) (A) (A) (A) (A) (A) (A) (A) (A)
                 (A) (A) (A) (A) (A) (A) (A) (A) (A) (A) (A) (A)
                 (A) (A) (A) (A) (A) (A) (A) (A) (A) (A) (A) (A)
                 (A) (A) (A) (A) (A) (A) (A) (A) (A) (A) (A) (A)
                 (A) (A) (A) (A) (A) (A) (A) (A) (A) (A) (A) (A)
                 (A) (A) (A) (A) (A) (A) (A) (A) (A) (A) (A) (A)
                 (A) (A) (A) (A) (A) (A) (A) (A) (A) (A) (A) (A)
    24 initial guesses have been made.
 Convergence on wavefunction:    0.001000000000000
 Iteration     1 Dimension    24 NMult     0 NNew     24
 CISAX will form    24 AO SS matrices at one time.
 New state      2 was old state      3
 New state      3 was old state      2
 New state      4 was old state      5
 New state      5 was old state      6
 New state      6 was old state      9
 Iteration     2 Dimension    36 NMult    24 NNew     12
 New state      3 was old state      6
 New state      5 was old state      3
 New state      6 was old state      5
 Iteration     3 Dimension    48 NMult    36 NNew     12
 Iteration     4 Dimension    60 NMult    48 NNew     12
 Iteration     5 Dimension    72 NMult    60 NNew     12
 Iteration     6 Dimension    80 NMult    72 NNew      8
 Iteration     7 Dimension    88 NMult    80 NNew      8
 Iteration     8 Dimension    92 NMult    88 NNew      4
 Iteration     9 Dimension    94 NMult    92 NNew      2
 ***********************************************************************
 Excited states from <AA,BB:AA,BB> singles matrix:
 ***********************************************************************
 
 Ground to excited state transition densities written to RWF  633
 Ground to excited state transition electric dipole moments (Au):
       state          X           Y           Z        Dip. S.      Osc.
         1         2.3798     -0.3445      0.0918      5.7908      0.4714
         2        -0.0706      0.2909      0.0161      0.0899      0.0096
         3         0.0024      0.0119     -0.0433      0.0020      0.0002
         4        -0.5892     -0.5131     -0.0897      0.6184      0.0730
         5        -0.1170     -0.3633     -0.0117      0.1458      0.0176
         6        -0.4304     -0.1401     -0.0379      0.2063      0.0254
 Ground to excited state transition velocity dipole moments (Au):
       state          X           Y           Z        Dip. S.      Osc.
         1        -0.3069      0.0563     -0.0114      0.0975      0.5323
         2         0.0135     -0.0532     -0.0025      0.0030      0.0126
         3        -0.0020     -0.0021      0.0111      0.0001      0.0005
         4         0.0970      0.1019      0.0168      0.0201      0.0756
         5         0.0213      0.0739     -0.0006      0.0059      0.0218
         6         0.0775      0.0277      0.0069      0.0068      0.0246
 Ground to excited state transition magnetic dipole moments (Au):
       state          X           Y           Z
         1         0.0659      0.3263     -0.1543
         2        -0.0839     -0.1064      0.9933
         3         0.2380     -0.7415      0.0898
         4         0.0684     -0.1333      1.6232
         5         0.0140     -0.0213      0.3438
         6        -0.4324     -0.3592      0.3240
 Ground to excited state transition velocity quadrupole moments (Au):
       state          XX          YY          ZZ          XY          XZ          YZ
         1        -0.5905      0.1831     -0.0159      0.2206      0.1003     -0.0152
         2         0.1142      0.0883      0.0123     -0.3175     -0.0161      0.0406
         3         0.1331     -0.0363     -0.0142     -0.0140     -0.0059      0.0160
         4         0.7903      0.0969     -0.0012     -0.3453      0.0162     -0.0974
         5        -0.5480      0.1868     -0.0109      0.0704     -0.0887     -0.0461
         6         0.3142      0.0122     -0.0091     -0.3487     -0.0181     -0.0829
 <0|del|b> * <b|rxdel|0> + <0|del|b> * <b|delr+rdel|0>
 Rotatory Strengths (R) in cgs (10**-40 erg-esu-cm/Gauss)
       state          XX          YY          ZZ    R(velocity)    E-M Angle
         1        34.6833    -32.6988     -2.4288     -0.1481       90.00
         2         6.9608     -8.3987     10.6922      3.0848       87.82
         3         4.9234      1.3040      2.3332      2.8535       76.57
         4        12.3731     60.3032      8.3059     26.9941       84.96
         5         9.2814     -1.6427    -13.3818     -1.9144       93.17
         6       -18.4200    -67.7232    -71.9405    -52.6946      140.31
 1/2[<0|r|b>*<b|rxdel|0> + (<0|rxdel|b>*<b|r|0>)*]
 Rotatory Strengths (R) in cgs (10**-40 erg-esu-cm/Gauss)
       state          XX          YY          ZZ     R(length)
         1      -110.8726     79.4948     10.0234     -7.1181
         2        -4.1881     21.8908    -11.3268      2.1253
         3        -0.4016      6.2623      2.7506      2.8704
         4        28.4787    -48.3573    102.9092     27.6769
         5         1.1623     -5.4675      2.8472     -0.4860
         6      -131.5947    -35.5743      8.6775    -52.8305
  1/2[<0|del|b>*<b|r|0> + (<0|r|b>*<b|del|0>)*] (Au)
       state          X           Y           Z        Dip. S.   Osc.(frdel)
         1        -0.7304     -0.0194     -0.0010      0.7508      0.5005
         2        -0.0010     -0.0155     -0.0000      0.0165      0.0110
         3        -0.0000     -0.0000     -0.0005      0.0005      0.0003
         4        -0.0571     -0.0523     -0.0015      0.1109      0.0739
         5        -0.0025     -0.0268      0.0000      0.0293      0.0196
         6        -0.0333     -0.0039     -0.0003      0.0375      0.0250

 Excitation energies and oscillator strengths:
 
 Excited State   1:      Singlet-A      3.3225 eV  373.16 nm  f=0.4714  <S**2>=0.000
      91 -> 92         0.70023
 This state for optimization and/or second-order correction.
 Total Energy, E(TD-HF/TD-DFT) =  -1090.58545681    
 Copying the excited state density for this state as the 1-particle RhoCI density.
 
 Excited State   2:      Singlet-A      4.3524 eV  284.86 nm  f=0.0096  <S**2>=0.000
      89 -> 92         0.42576
      91 -> 93         0.53938
 
 Excited State   3:      Singlet-A      4.6949 eV  264.09 nm  f=0.0002  <S**2>=0.000
      85 -> 92        -0.22405
      85 -> 94        -0.18768
      85 -> 95        -0.10859
      86 -> 92         0.55550
      86 -> 95         0.24206
 
 Excited State   4:      Singlet-A      4.8149 eV  257.50 nm  f=0.0730  <S**2>=0.000
      87 -> 92         0.11077
      88 -> 92         0.35339
      89 -> 92         0.23386
      90 -> 92        -0.15571
      91 -> 93        -0.24345
      91 -> 94         0.42629
 
 Excited State   5:      Singlet-A      4.9170 eV  252.16 nm  f=0.0176  <S**2>=0.000
      89 -> 92         0.10702
      90 -> 92         0.67475
      91 -> 94         0.10665
 
 Excited State   6:      Singlet-A      5.0177 eV  247.09 nm  f=0.0254  <S**2>=0.000
      85 -> 92         0.48867
      85 -> 95         0.18197
      86 -> 92         0.17982
      86 -> 94        -0.30119
      91 -> 94         0.20312
 SavETr:  write IOETrn=   770 NScale= 10 NData=  16 NLR=1 NState=    6 LETran=     118.

 **********************************************************************

            Population analysis using the SCF Density.

 **********************************************************************

 Orbital symmetries:
       Occupied  (A) (A) (A) (A) (A) (A) (A) (A) (A) (A) (A) (A)
                 (A) (A) (A) (A) (A) (A) (A) (A) (A) (A) (A) (A)
                 (A) (A) (A) (A) (A) (A) (A) (A) (A) (A) (A) (A)
                 (A) (A) (A) (A) (A) (A) (A) (A) (A) (A) (A) (A)
                 (A) (A) (A) (A) (A) (A) (A) (A) (A) (A) (A) (A)
                 (A) (A) (A) (A) (A) (A) (A) (A) (A) (A) (A) (A)
                 (A) (A) (A) (A) (A) (A) (A) (A) (A) (A) (A) (A)
                 (A) (A) (A) (A) (A) (A) (A)
       Virtual   (A) (A) (A) (A) (A) (A) (A) (A) (A) (A) (A) (A)
                 (A) (A) (A) (A) (A) (A) (A) (A) (A) (A) (A) (A)
                 (A) (A) (A) (A) (A) (A) (A) (A) (A) (A) (A) (A)
                 (A) (A) (A) (A) (A) (A) (A) (A) (A) (A) (A) (A)
                 (A) (A) (A) (A) (A) (A) (A) (A) (A) (A) (A) (A)
                 (A) (A) (A) (A) (A) (A) (A) (A) (A) (A) (A) (A)
                 (A) (A) (A) (A) (A) (A) (A) (A) (A) (A) (A) (A)
                 (A) (A) (A) (A) (A) (A) (A) (A) (A) (A) (A) (A)
                 (A) (A) (A) (A) (A) (A) (A) (A) (A) (A) (A) (A)
                 (A) (A) (A) (A) (A) (A) (A) (A) (A) (A) (A) (A)
                 (A) (A) (A) (A) (A) (A) (A) (A) (A) (A) (A) (A)
                 (A) (A) (A) (A) (A) (A) (A) (A) (A) (A) (A) (A)
                 (A) (A) (A) (A) (A) (A) (A) (A) (A) (A) (A) (A)
                 (A) (A) (A) (A) (A) (A) (A) (A) (A) (A) (A) (A)
                 (A) (A) (A) (A) (A) (A) (A) (A) (A) (A) (A) (A)
                 (A) (A) (A) (A) (A) (A) (A) (A) (A) (A) (A) (A)
                 (A) (A) (A) (A) (A) (A) (A) (A) (A) (A) (A) (A)
                 (A) (A) (A) (A) (A) (A) (A) (A) (A) (A) (A) (A)
                 (A) (A) (A) (A) (A) (A) (A) (A) (A) (A) (A) (A)
                 (A) (A) (A) (A) (A) (A) (A) (A) (A) (A) (A) (A)
                 (A) (A) (A) (A) (A) (A) (A) (A) (A) (A) (A) (A)
                 (A) (A) (A) (A) (A) (A) (A) (A) (A) (A) (A) (A)
                 (A) (A) (A) (A) (A) (A) (A) (A) (A) (A) (A) (A)
                 (A) (A) (A) (A) (A) (A) (A) (A) (A) (A) (A) (A)
                 (A) (A) (A) (A) (A) (A) (A) (A) (A) (A) (A) (A)
                 (A) (A) (A) (A) (A) (A) (A) (A) (A) (A) (A) (A)
                 (A) (A) (A) (A) (A) (A) (A) (A) (A) (A) (A) (A)
                 (A) (A) (A) (A) (A) (A) (A) (A) (A) (A) (A) (A)
                 (A) (A) (A) (A) (A) (A) (A) (A) (A) (A) (A) (A)
                 (A) (A) (A) (A) (A) (A) (A) (A) (A) (A) (A) (A)
                 (A) (A) (A) (A) (A) (A) (A) (A) (A) (A) (A) (A)
                 (A) (A) (A) (A) (A) (A) (A) (A) (A) (A) (A) (A)
 The electronic state is 1-A.
 Alpha  occ. eigenvalues --  -19.62039 -19.61533 -14.80763 -14.78379 -14.75090
 Alpha  occ. eigenvalues --  -10.67715 -10.67301 -10.62153 -10.58425 -10.58257
 Alpha  occ. eigenvalues --  -10.57916 -10.57784 -10.57633 -10.57444 -10.57443
 Alpha  occ. eigenvalues --  -10.57368 -10.57327 -10.56414 -10.56413 -10.56411
 Alpha  occ. eigenvalues --  -10.55743 -10.55312 -10.54104 -10.53978 -10.53369
 Alpha  occ. eigenvalues --   -1.17614  -1.15521  -1.05935  -1.03986  -1.01978
 Alpha  occ. eigenvalues --   -0.98105  -0.92590  -0.89677  -0.87504  -0.84576
 Alpha  occ. eigenvalues --   -0.84049  -0.81808  -0.80374  -0.78384  -0.75217
 Alpha  occ. eigenvalues --   -0.74231  -0.73246  -0.70968  -0.69847  -0.68561
 Alpha  occ. eigenvalues --   -0.65138  -0.65062  -0.64260  -0.61218  -0.59106
 Alpha  occ. eigenvalues --   -0.58405  -0.57001  -0.55913  -0.55485  -0.54781
 Alpha  occ. eigenvalues --   -0.54394  -0.53715  -0.52780  -0.51880  -0.51468
 Alpha  occ. eigenvalues --   -0.51396  -0.50812  -0.50092  -0.48964  -0.48625
 Alpha  occ. eigenvalues --   -0.47979  -0.47034  -0.46803  -0.46236  -0.46071
 Alpha  occ. eigenvalues --   -0.45042  -0.44421  -0.44121  -0.42780  -0.42534
 Alpha  occ. eigenvalues --   -0.41928  -0.40852  -0.40694  -0.40452  -0.40053
 Alpha  occ. eigenvalues --   -0.39774  -0.38951  -0.37740  -0.37461  -0.35673
 Alpha  occ. eigenvalues --   -0.34500  -0.33248  -0.31736  -0.31310  -0.28183
 Alpha  occ. eigenvalues --   -0.24689
 Alpha virt. eigenvalues --   -0.05099   0.00722   0.01787   0.05571   0.09529
 Alpha virt. eigenvalues --    0.10791   0.11490   0.12514   0.13529   0.13678
 Alpha virt. eigenvalues --    0.13981   0.14216   0.14631   0.14886   0.15073
 Alpha virt. eigenvalues --    0.15241   0.16205   0.16850   0.17547   0.18353
 Alpha virt. eigenvalues --    0.18666   0.18890   0.19429   0.19595   0.19830
 Alpha virt. eigenvalues --    0.20850   0.20998   0.21342   0.21748   0.22291
 Alpha virt. eigenvalues --    0.22884   0.23434   0.24139   0.24495   0.24855
 Alpha virt. eigenvalues --    0.27195   0.27339   0.27760   0.28617   0.28894
 Alpha virt. eigenvalues --    0.29516   0.29749   0.29836   0.30127   0.30368
 Alpha virt. eigenvalues --    0.30802   0.31814   0.32101   0.33423   0.33777
 Alpha virt. eigenvalues --    0.34934   0.35782   0.37552   0.38498   0.39578
 Alpha virt. eigenvalues --    0.40575   0.41460   0.43746   0.45612   0.45947
 Alpha virt. eigenvalues --    0.46497   0.47168   0.47357   0.47785   0.48736
 Alpha virt. eigenvalues --    0.49114   0.49448   0.49703   0.49968   0.50590
 Alpha virt. eigenvalues --    0.50716   0.50933   0.51404   0.52250   0.52607
 Alpha virt. eigenvalues --    0.53725   0.54360   0.54491   0.55518   0.56258
 Alpha virt. eigenvalues --    0.58265   0.58811   0.59824   0.60437   0.61366
 Alpha virt. eigenvalues --    0.62226   0.62941   0.64329   0.65259   0.65854
 Alpha virt. eigenvalues --    0.66807   0.67065   0.67858   0.68626   0.69251
 Alpha virt. eigenvalues --    0.69300   0.69650   0.70080   0.70156   0.70617
 Alpha virt. eigenvalues --    0.70774   0.71237   0.71468   0.71883   0.72004
 Alpha virt. eigenvalues --    0.72055   0.72302   0.72801   0.73037   0.73812
 Alpha virt. eigenvalues --    0.73913   0.73993   0.74221   0.74305   0.74531
 Alpha virt. eigenvalues --    0.74998   0.75578   0.75792   0.75877   0.76282
 Alpha virt. eigenvalues --    0.76505   0.76973   0.77506   0.77606   0.78405
 Alpha virt. eigenvalues --    0.78595   0.78683   0.79065   0.79421   0.80088
 Alpha virt. eigenvalues --    0.80512   0.81179   0.81582   0.84143   0.84504
 Alpha virt. eigenvalues --    0.84861   0.86720   0.87257   0.87648   0.88788
 Alpha virt. eigenvalues --    0.89364   0.90405   0.90778   0.94283   0.94530
 Alpha virt. eigenvalues --    0.95672   0.95887   0.97266   1.01012   1.01286
 Alpha virt. eigenvalues --    1.03372   1.04560   1.06376   1.06807   1.07307
 Alpha virt. eigenvalues --    1.07717   1.07919   1.11069   1.11897   1.13646
 Alpha virt. eigenvalues --    1.14821   1.15410   1.16201   1.16900   1.18489
 Alpha virt. eigenvalues --    1.20260   1.21007   1.22606   1.23305   1.24587
 Alpha virt. eigenvalues --    1.24992   1.25550   1.26050   1.26660   1.27812
 Alpha virt. eigenvalues --    1.28992   1.29390   1.30560   1.30778   1.31110
 Alpha virt. eigenvalues --    1.32659   1.34005   1.36368   1.36956   1.37332
 Alpha virt. eigenvalues --    1.37578   1.37897   1.38628   1.39975   1.42473
 Alpha virt. eigenvalues --    1.42817   1.43643   1.44784   1.45589   1.47644
 Alpha virt. eigenvalues --    1.48087   1.51155   1.53234   1.53579   1.54845
 Alpha virt. eigenvalues --    1.55466   1.55729   1.56861   1.57735   1.58234
 Alpha virt. eigenvalues --    1.58931   1.59642   1.59945   1.62410   1.64226
 Alpha virt. eigenvalues --    1.66309   1.70501   1.70971   1.72059   1.72272
 Alpha virt. eigenvalues --    1.74319   1.74555   1.74822   1.75029   1.77000
 Alpha virt. eigenvalues --    1.77326   1.78166   1.78312   1.78916   1.79396
 Alpha virt. eigenvalues --    1.79933   1.80576   1.81007   1.81529   1.82100
 Alpha virt. eigenvalues --    1.82239   1.82280   1.82747   1.82962   1.83845
 Alpha virt. eigenvalues --    1.84484   1.84899   1.85197   1.85787   1.86189
 Alpha virt. eigenvalues --    1.86900   1.87543   1.89122   1.89182   1.89761
 Alpha virt. eigenvalues --    1.90474   1.90696   1.91488   1.91756   1.92376
 Alpha virt. eigenvalues --    1.93302   1.93752   1.94069   1.95187   1.95651
 Alpha virt. eigenvalues --    1.96729   1.96868   1.97364   1.97607   1.98213
 Alpha virt. eigenvalues --    1.98620   1.98917   1.99864   2.00849   2.01301
 Alpha virt. eigenvalues --    2.01536   2.02631   2.04294   2.05391   2.05884
 Alpha virt. eigenvalues --    2.06323   2.07963   2.08530   2.09313   2.10894
 Alpha virt. eigenvalues --    2.11938   2.12559   2.13090   2.13542   2.15031
 Alpha virt. eigenvalues --    2.16405   2.17233   2.17642   2.19252   2.20897
 Alpha virt. eigenvalues --    2.22364   2.23668   2.24998   2.26058   2.26417
 Alpha virt. eigenvalues --    2.26900   2.27183   2.29100   2.29365   2.31068
 Alpha virt. eigenvalues --    2.31328   2.33021   2.33238   2.33917   2.35261
 Alpha virt. eigenvalues --    2.35605   2.38168   2.39156   2.39781   2.40292
 Alpha virt. eigenvalues --    2.42780   2.43726   2.44602   2.45077   2.46378
 Alpha virt. eigenvalues --    2.47503   2.47653   2.49183   2.50444   2.51843
 Alpha virt. eigenvalues --    2.52419   2.53299   2.53888   2.55643   2.56605
 Alpha virt. eigenvalues --    2.58140   2.60196   2.60833   2.61722   2.62586
 Alpha virt. eigenvalues --    2.63408   2.64701   2.65415   2.65993   2.66463
 Alpha virt. eigenvalues --    2.68093   2.69039   2.71172   2.71924   2.73143
 Alpha virt. eigenvalues --    2.74401   2.76033   2.76494   2.77473   2.78016
 Alpha virt. eigenvalues --    2.78353   2.79318   2.81525   2.84396   2.85994
 Alpha virt. eigenvalues --    2.86545   2.87058   2.87638   2.89128   2.89595
 Alpha virt. eigenvalues --    2.90395   2.90585   2.91215   2.92336   2.92493
 Alpha virt. eigenvalues --    2.94460   2.95817   2.96570   2.99232   3.01327
 Alpha virt. eigenvalues --    3.02337   3.02848   3.04067   3.04324   3.07286
 Alpha virt. eigenvalues --    3.10069   3.10626   3.11006   3.12802   3.13769
 Alpha virt. eigenvalues --    3.15508   3.17515   3.18694   3.20621   3.22350
 Alpha virt. eigenvalues --    3.24785   3.37114   3.42824   3.47009   3.53910
 Alpha virt. eigenvalues --    3.56930   3.66930   3.71651   3.74096
          Condensed to atoms (all electrons):
               1          2          3          4          5          6
     1  C    4.515832   0.402682   0.401652   0.391631   0.000000  -0.000000
     2  H    0.402682   0.614261  -0.018005  -0.033152  -0.000002  -0.000000
     3  H    0.401652  -0.018005   0.612137  -0.031580  -0.000005  -0.000000
     4  H    0.391631  -0.033152  -0.031580   0.685303   0.000001   0.000000
     5  C    0.000000  -0.000002  -0.000005   0.000001   5.600848   0.299005
     6  C   -0.000000  -0.000000  -0.000000   0.000000   0.299005   5.289605
     7  C    0.000000   0.000000   0.000000  -0.000000  -0.013231   0.260991
     8  C   -0.000000   0.000000   0.000000  -0.000000   0.001556   0.282135
     9  C    0.000038   0.000001   0.000008  -0.000005   0.172532   0.011610
    10  C   -0.000001   0.000004   0.000007  -0.000002   0.239418   0.025250
    11  H    0.000051   0.000006   0.000017  -0.000001  -0.062888   0.014059
    12  C    0.000001   0.000000   0.000001  -0.000000   0.012273  -0.121012
    13  H    0.000001   0.000000   0.000000  -0.000000   0.016133  -0.001960
    14  C    0.000000   0.000000   0.000000  -0.000000   0.015659  -0.064677
    15  N    0.000000  -0.000000  -0.000000   0.000000  -0.001485  -0.016450
    16  C   -0.000000  -0.000000  -0.000000   0.000000  -0.127851   0.038583
    17  H   -0.000000   0.000000   0.000000  -0.000000  -0.001189   0.013653
    18  C    0.000000   0.000001   0.000001  -0.000000   0.088609  -0.137098
    19  H   -0.000000  -0.000000  -0.000000   0.000000   0.015100  -0.001003
    20  N   -0.000011   0.000034   0.000101  -0.000045  -0.122801   0.004392
    21  H   -0.001748  -0.000443  -0.000949   0.000715  -0.032326   0.000634
    22  C    0.000000  -0.000000  -0.000000   0.000000  -0.143736   0.034037
    23  H   -0.000000  -0.000000  -0.000000   0.000000  -0.000897   0.013753
    24  C   -0.000000   0.000000   0.000000  -0.000000   0.012545  -0.066961
    25  O   -0.000000   0.000000   0.000000  -0.000000  -0.000068   0.000647
    26  O    0.000000   0.000000  -0.000000   0.000000  -0.000062   0.000435
    27  C    0.011166  -0.000436   0.000893  -0.000728   0.010284  -0.000169
    28  H   -0.000194   0.000012  -0.000048   0.000021  -0.000835   0.000014
    29  H   -0.000246   0.000013  -0.000004  -0.000021  -0.000192  -0.000004
    30  N    0.350408  -0.028055  -0.027703  -0.040763   0.000536   0.000006
    31  C   -0.054930   0.007595  -0.003457  -0.008831   0.000238   0.000003
    32  H   -0.003354  -0.000521  -0.002445   0.013145   0.000031   0.000001
    33  H   -0.006048   0.000480   0.006314  -0.003404  -0.000067  -0.000002
    34  C   -0.048919  -0.003812   0.007498  -0.006648  -0.000036  -0.000002
    35  H    0.006578   0.000538  -0.000387  -0.000732  -0.000304  -0.000014
    36  H   -0.004819   0.004814   0.000444  -0.002900  -0.000011  -0.000000
    37  H   -0.003255  -0.002676  -0.000461   0.013934   0.000009   0.000000
    38  C   -0.000000   0.000000   0.000000  -0.000000   0.000096  -0.000072
    39  H    0.000000   0.000000   0.000000  -0.000000   0.000002  -0.000176
    40  H   -0.000000  -0.000000  -0.000000   0.000000   0.000001  -0.000188
    41  C    0.000000  -0.000000  -0.000000   0.000000  -0.000005   0.000190
    42  H   -0.000000  -0.000000  -0.000000   0.000000   0.000003  -0.000018
    43  H    0.000000  -0.000000   0.000000  -0.000000   0.000002  -0.000022
    44  C   -0.000000  -0.000000  -0.000000   0.000000   0.000000   0.000001
    45  H    0.000000  -0.000000   0.000000   0.000000  -0.000000   0.000000
    46  H   -0.000000  -0.000000  -0.000000   0.000000  -0.000000  -0.000000
    47  C    0.000000   0.000000   0.000000   0.000000  -0.000000   0.000000
    48  H    0.000000   0.000000   0.000000   0.000000  -0.000000  -0.000000
    49  H    0.000000   0.000000   0.000000   0.000000   0.000000   0.000000
    50  H    0.000000   0.000000   0.000000   0.000000   0.000000   0.000000
               7          8          9         10         11         12
     1  C    0.000000  -0.000000   0.000038  -0.000001   0.000051   0.000001
     2  H    0.000000   0.000000   0.000001   0.000004   0.000006   0.000000
     3  H    0.000000   0.000000   0.000008   0.000007   0.000017   0.000001
     4  H   -0.000000  -0.000000  -0.000005  -0.000002  -0.000001  -0.000000
     5  C   -0.013231   0.001556   0.172532   0.239418  -0.062888   0.012273
     6  C    0.260991   0.282135   0.011610   0.025250   0.014059  -0.121012
     7  C    5.927586  -0.068812  -0.178198   0.025041  -0.000077   0.085997
     8  C   -0.068812   5.807447   0.029719  -0.164061  -0.001542  -0.002968
     9  C   -0.178198   0.029719   5.265644  -0.132401  -0.023265   0.197287
    10  C    0.025041  -0.164061  -0.132401   5.260577   0.457441   0.017932
    11  H   -0.000077  -0.001542  -0.023265   0.457441   0.617369  -0.000080
    12  C    0.085997  -0.002968   0.197287   0.017932  -0.000080   5.410395
    13  H    0.017317   0.000023  -0.078316  -0.000110   0.000012   0.478376
    14  C   -0.040211   0.189283   0.000309  -0.002789   0.000031  -0.000334
    15  N   -0.125600  -0.125093  -0.000051  -0.000026  -0.000000   0.000056
    16  C    0.216790   0.015886   0.145299  -0.003404  -0.000086   0.189321
    17  H   -0.090058  -0.000551   0.015222   0.000030  -0.000000  -0.064673
    18  C   -0.003076   0.097647   0.019072   0.287592  -0.056524  -0.000403
    19  H    0.000050   0.014567  -0.000376  -0.067471  -0.012196   0.000003
    20  N   -0.000504  -0.000033   0.502220  -0.002557  -0.002637  -0.110346
    21  H   -0.000184   0.000008  -0.002245   0.004939   0.002298   0.010267
    22  C    0.015304   0.275814  -0.003478   0.109882   0.013729   0.000165
    23  H   -0.000506  -0.080268   0.000047   0.013414  -0.000217   0.000000
    24  C    0.200328  -0.038841  -0.001395   0.000195   0.000002   0.020587
    25  O    0.000217  -0.142559   0.000001  -0.000054  -0.000000  -0.000000
    26  O   -0.148400   0.000181  -0.000036   0.000001  -0.000000   0.001997
    27  C    0.000080   0.000005  -0.046510   0.000505   0.000160  -0.001624
    28  H   -0.000069   0.000001  -0.016788  -0.000031  -0.000067   0.009844
    29  H   -0.000059  -0.000000  -0.007006   0.000023   0.000041   0.005365
    30  N   -0.000000  -0.000000  -0.001424  -0.000827   0.000368  -0.000094
    31  C    0.000005  -0.000000   0.010297  -0.000080   0.000275   0.000714
    32  H   -0.000000   0.000000  -0.000409  -0.000013  -0.000002  -0.000024
    33  H    0.000000  -0.000000   0.000280   0.000042   0.000017  -0.000118
    34  C   -0.000000   0.000000  -0.000159   0.000040  -0.000023  -0.000021
    35  H    0.000002   0.000000   0.000548   0.000144  -0.000086  -0.000073
    36  H    0.000000  -0.000000   0.000023   0.000016   0.000023   0.000003
    37  H   -0.000000  -0.000000  -0.000050  -0.000007   0.000001  -0.000008
    38  C    0.009270   0.009444  -0.000000   0.000000   0.000000   0.000001
    39  H    0.003701  -0.000375   0.000000  -0.000000   0.000000  -0.000003
    40  H   -0.000361   0.003504  -0.000000   0.000001   0.000000   0.000000
    41  C   -0.001266  -0.001327  -0.000000  -0.000000  -0.000000   0.000000
    42  H   -0.000131   0.000063   0.000000  -0.000000   0.000000  -0.000000
    43  H    0.000059  -0.000003  -0.000000   0.000000  -0.000000  -0.000000
    44  C   -0.000005  -0.000003   0.000000   0.000000   0.000000   0.000000
    45  H    0.000000  -0.000003   0.000000  -0.000000  -0.000000  -0.000000
    46  H   -0.000003   0.000000  -0.000000   0.000000   0.000000   0.000000
    47  C   -0.000000  -0.000000  -0.000000  -0.000000  -0.000000  -0.000000
    48  H    0.000000   0.000000   0.000000   0.000000   0.000000   0.000000
    49  H   -0.000000  -0.000000  -0.000000  -0.000000  -0.000000  -0.000000
    50  H   -0.000000  -0.000000  -0.000000  -0.000000   0.000000   0.000000
              13         14         15         16         17         18
     1  C    0.000001   0.000000   0.000000  -0.000000  -0.000000   0.000000
     2  H    0.000000   0.000000  -0.000000  -0.000000   0.000000   0.000001
     3  H    0.000000   0.000000  -0.000000  -0.000000   0.000000   0.000001
     4  H   -0.000000  -0.000000   0.000000   0.000000  -0.000000  -0.000000
     5  C    0.016133   0.015659  -0.001485  -0.127851  -0.001189   0.088609
     6  C   -0.001960  -0.064677  -0.016450   0.038583   0.013653  -0.137098
     7  C    0.017317  -0.040211  -0.125600   0.216790  -0.090058  -0.003076
     8  C    0.000023   0.189283  -0.125093   0.015886  -0.000551   0.097647
     9  C   -0.078316   0.000309  -0.000051   0.145299   0.015222   0.019072
    10  C   -0.000110  -0.002789  -0.000026  -0.003404   0.000030   0.287592
    11  H    0.000012   0.000031  -0.000000  -0.000086  -0.000000  -0.056524
    12  C    0.478376  -0.000334   0.000056   0.189321  -0.064673  -0.000403
    13  H    0.633118   0.000001   0.000001  -0.078987  -0.011988   0.000001
    14  C    0.000001   4.677284   0.318076   0.000969   0.000062   0.020341
    15  N    0.000001   0.318076   7.096705   0.011167   0.001080   0.000001
    16  C   -0.078987   0.000969   0.011167   5.203509   0.469238   0.000195
    17  H   -0.011988   0.000062   0.001080   0.469238   0.627828   0.000001
    18  C    0.000001   0.020341   0.000001   0.000195   0.000001   5.127980
    19  H   -0.000000  -0.000397   0.000001  -0.000000   0.000000   0.462588
    20  N   -0.017850   0.000001  -0.000000   0.008307  -0.000088   0.001126
    21  H   -0.000148   0.000000  -0.000000   0.000126   0.000006  -0.001004
    22  C    0.000001  -0.074218   0.010118  -0.000438   0.000003   0.191007
    23  H    0.000000  -0.014289   0.001061   0.000002  -0.000000  -0.066901
    24  C   -0.000406  -0.039274   0.298604  -0.072988  -0.013769  -0.000310
    25  O    0.000000   0.761875  -0.112921   0.000010   0.000000   0.001692
    26  O   -0.000020  -0.000928  -0.114573   0.017966   0.013570  -0.000000
    27  C    0.009269  -0.000000   0.000000   0.000157  -0.000029   0.000012
    28  H   -0.001098   0.000000   0.000000   0.001221   0.000017   0.000001
    29  H   -0.001189  -0.000000   0.000000   0.000287   0.000014   0.000002
    30  N   -0.000010  -0.000000   0.000000   0.000001  -0.000000  -0.000022
    31  C    0.000726   0.000000   0.000000  -0.000062  -0.000000   0.000000
    32  H   -0.000006  -0.000000   0.000000   0.000001  -0.000000  -0.000000
    33  H   -0.000007   0.000000  -0.000000  -0.000001   0.000000   0.000002
    34  C   -0.000012   0.000000  -0.000000   0.000001   0.000000   0.000001
    35  H    0.000004   0.000000  -0.000000  -0.000001  -0.000000   0.000008
    36  H    0.000000   0.000000  -0.000000  -0.000000  -0.000000   0.000001
    37  H   -0.000003  -0.000000   0.000000   0.000000  -0.000000  -0.000000
    38  C   -0.000000  -0.023857   0.215308  -0.000454  -0.000047   0.000001
    39  H   -0.000000   0.006014  -0.022883   0.000003  -0.000008   0.000000
    40  H    0.000000  -0.009720  -0.023094   0.000009  -0.000001  -0.000003
    41  C    0.000000  -0.005013  -0.032559   0.000028   0.000007   0.000000
    42  H    0.000000  -0.001329  -0.009560  -0.000024  -0.000011  -0.000000
    43  H    0.000000   0.007502  -0.009910  -0.000002   0.000000  -0.000001
    44  C   -0.000000  -0.000072   0.005133  -0.000000   0.000000   0.000000
    45  H    0.000000  -0.000110   0.000099   0.000000   0.000000   0.000000
    46  H    0.000000   0.000065   0.000103   0.000000  -0.000000  -0.000000
    47  C    0.000000  -0.000016  -0.000175   0.000000   0.000000  -0.000000
    48  H   -0.000000   0.000000   0.000004   0.000000   0.000000   0.000000
    49  H    0.000000  -0.000001   0.000000  -0.000000   0.000000   0.000000
    50  H   -0.000000  -0.000002   0.000001  -0.000000  -0.000000   0.000000
              19         20         21         22         23         24
     1  C   -0.000000  -0.000011  -0.001748   0.000000  -0.000000  -0.000000
     2  H   -0.000000   0.000034  -0.000443  -0.000000  -0.000000   0.000000
     3  H   -0.000000   0.000101  -0.000949  -0.000000  -0.000000   0.000000
     4  H    0.000000  -0.000045   0.000715   0.000000   0.000000  -0.000000
     5  C    0.015100  -0.122801  -0.032326  -0.143736  -0.000897   0.012545
     6  C   -0.001003   0.004392   0.000634   0.034037   0.013753  -0.066961
     7  C    0.000050  -0.000504  -0.000184   0.015304  -0.000506   0.200328
     8  C    0.014567  -0.000033   0.000008   0.275814  -0.080268  -0.038841
     9  C   -0.000376   0.502220  -0.002245  -0.003478   0.000047  -0.001395
    10  C   -0.067471  -0.002557   0.004939   0.109882   0.013414   0.000195
    11  H   -0.012196  -0.002637   0.002298   0.013729  -0.000217   0.000002
    12  C    0.000003  -0.110346   0.010267   0.000165   0.000000   0.020587
    13  H   -0.000000  -0.017850  -0.000148   0.000001   0.000000  -0.000406
    14  C   -0.000397   0.000001   0.000000  -0.074218  -0.014289  -0.039274
    15  N    0.000001  -0.000000  -0.000000   0.010118   0.001061   0.298604
    16  C   -0.000000   0.008307   0.000126  -0.000438   0.000002  -0.072988
    17  H    0.000000  -0.000088   0.000006   0.000003  -0.000000  -0.013769
    18  C    0.462588   0.001126  -0.001004   0.191007  -0.066901  -0.000310
    19  H    0.622518   0.000005   0.000040  -0.076548  -0.009817   0.000001
    20  N    0.000005   6.396514   0.355916  -0.000057   0.000000   0.000016
    21  H    0.000040   0.355916   0.514653   0.000027   0.000000  -0.000001
    22  C   -0.076548  -0.000057   0.000027   5.202719   0.465204   0.001116
    23  H   -0.009817   0.000000   0.000000   0.465204   0.619045   0.000068
    24  C    0.000001   0.000016  -0.000001   0.001116   0.000068   4.691395
    25  O   -0.000011  -0.000000   0.000000   0.015954   0.013945  -0.000942
    26  O    0.000000  -0.000000  -0.000000   0.000010   0.000000   0.766533
    27  C   -0.000000   0.320465  -0.058444   0.000001   0.000000   0.000000
    28  H    0.000000  -0.018779   0.005587  -0.000000   0.000000   0.000000
    29  H   -0.000000  -0.040841   0.001235  -0.000000   0.000000   0.000000
    30  N   -0.000000  -0.014015   0.054988   0.000000   0.000000  -0.000000
    31  C   -0.000000  -0.046849  -0.018012   0.000000  -0.000000  -0.000000
    32  H    0.000000   0.004871   0.003376   0.000000   0.000000  -0.000000
    33  H   -0.000000  -0.001540  -0.002437  -0.000000  -0.000000   0.000000
    34  C   -0.000000  -0.003117  -0.001812  -0.000000   0.000000  -0.000000
    35  H    0.000000   0.003570  -0.002975  -0.000000  -0.000000   0.000000
    36  H   -0.000000   0.000095  -0.000974  -0.000000  -0.000000   0.000000
    37  H    0.000000   0.000219   0.001473   0.000000   0.000000  -0.000000
    38  C   -0.000000   0.000000   0.000000  -0.000430  -0.000046  -0.022176
    39  H    0.000000   0.000000   0.000000   0.000009  -0.000001  -0.009777
    40  H   -0.000000   0.000000   0.000000   0.000008  -0.000003   0.005845
    41  C    0.000000   0.000000  -0.000000   0.000026   0.000006  -0.004706
    42  H   -0.000000  -0.000000   0.000000  -0.000002   0.000000   0.007366
    43  H   -0.000000   0.000000   0.000000  -0.000024  -0.000011  -0.001318
    44  C   -0.000000  -0.000000   0.000000  -0.000000   0.000000  -0.000096
    45  H    0.000000   0.000000   0.000000   0.000000  -0.000000   0.000062
    46  H    0.000000  -0.000000  -0.000000   0.000000   0.000000  -0.000109
    47  C    0.000000   0.000000  -0.000000   0.000000   0.000000  -0.000014
    48  H   -0.000000  -0.000000   0.000000   0.000000   0.000000   0.000000
    49  H   -0.000000   0.000000   0.000000  -0.000000  -0.000000  -0.000002
    50  H    0.000000  -0.000000  -0.000000  -0.000000   0.000000  -0.000001
              25         26         27         28         29         30
     1  C   -0.000000   0.000000   0.011166  -0.000194  -0.000246   0.350408
     2  H    0.000000   0.000000  -0.000436   0.000012   0.000013  -0.028055
     3  H    0.000000  -0.000000   0.000893  -0.000048  -0.000004  -0.027703
     4  H   -0.000000   0.000000  -0.000728   0.000021  -0.000021  -0.040763
     5  C   -0.000068  -0.000062   0.010284  -0.000835  -0.000192   0.000536
     6  C    0.000647   0.000435  -0.000169   0.000014  -0.000004   0.000006
     7  C    0.000217  -0.148400   0.000080  -0.000069  -0.000059  -0.000000
     8  C   -0.142559   0.000181   0.000005   0.000001  -0.000000  -0.000000
     9  C    0.000001  -0.000036  -0.046510  -0.016788  -0.007006  -0.001424
    10  C   -0.000054   0.000001   0.000505  -0.000031   0.000023  -0.000827
    11  H   -0.000000  -0.000000   0.000160  -0.000067   0.000041   0.000368
    12  C   -0.000000   0.001997  -0.001624   0.009844   0.005365  -0.000094
    13  H    0.000000  -0.000020   0.009269  -0.001098  -0.001189  -0.000010
    14  C    0.761875  -0.000928  -0.000000   0.000000  -0.000000  -0.000000
    15  N   -0.112921  -0.114573   0.000000   0.000000   0.000000   0.000000
    16  C    0.000010   0.017966   0.000157   0.001221   0.000287   0.000001
    17  H    0.000000   0.013570  -0.000029   0.000017   0.000014  -0.000000
    18  C    0.001692  -0.000000   0.000012   0.000001   0.000002  -0.000022
    19  H   -0.000011   0.000000  -0.000000   0.000000  -0.000000  -0.000000
    20  N   -0.000000  -0.000000   0.320465  -0.018779  -0.040841  -0.014015
    21  H    0.000000  -0.000000  -0.058444   0.005587   0.001235   0.054988
    22  C    0.015954   0.000010   0.000001  -0.000000  -0.000000   0.000000
    23  H    0.013945   0.000000   0.000000   0.000000   0.000000   0.000000
    24  C   -0.000942   0.766533   0.000000   0.000000   0.000000  -0.000000
    25  O    7.770705  -0.000024   0.000000   0.000000  -0.000000  -0.000000
    26  O   -0.000024   7.780482   0.000000   0.000000   0.000000  -0.000000
    27  C    0.000000   0.000000   4.670415   0.390882   0.383380  -0.077298
    28  H    0.000000   0.000000   0.390882   0.613602  -0.038569   0.005223
    29  H   -0.000000   0.000000   0.383380  -0.038569   0.646933  -0.007647
    30  N   -0.000000  -0.000000  -0.077298   0.005223  -0.007647   6.753780
    31  C   -0.000000   0.000000   0.365688  -0.015706  -0.009545   0.335078
    32  H    0.000000  -0.000000  -0.037595  -0.000535  -0.005895  -0.036518
    33  H   -0.000000  -0.000000  -0.013743  -0.012231   0.007641  -0.036274
    34  C   -0.000000  -0.000000   0.004050  -0.000002   0.004146   0.327783
    35  H    0.000000  -0.000000   0.016671   0.000409  -0.005141  -0.028104
    36  H    0.000000  -0.000000   0.000013  -0.000004  -0.000197  -0.026174
    37  H   -0.000000   0.000000  -0.008571   0.000109   0.000556  -0.043098
    38  C    0.001931   0.001986  -0.000000  -0.000000   0.000000  -0.000000
    39  H    0.000513   0.016449  -0.000000   0.000000  -0.000000   0.000000
    40  H    0.015428   0.000520  -0.000000  -0.000000   0.000000  -0.000000
    41  C   -0.006202  -0.006543   0.000000   0.000000  -0.000000   0.000000
    42  H    0.000126   0.006877  -0.000000  -0.000000   0.000000  -0.000000
    43  H    0.006607   0.000139  -0.000000   0.000000  -0.000000  -0.000000
    44  C   -0.000184  -0.000172  -0.000000  -0.000000   0.000000  -0.000000
    45  H    0.000047  -0.000007   0.000000   0.000000  -0.000000   0.000000
    46  H   -0.000007   0.000046  -0.000000  -0.000000   0.000000  -0.000000
    47  C    0.000002   0.000001   0.000000   0.000000  -0.000000   0.000000
    48  H   -0.000000  -0.000000  -0.000000  -0.000000   0.000000   0.000000
    49  H    0.000000  -0.000009   0.000000   0.000000  -0.000000   0.000000
    50  H   -0.000008   0.000000  -0.000000  -0.000000   0.000000  -0.000000
              31         32         33         34         35         36
     1  C   -0.054930  -0.003354  -0.006048  -0.048919   0.006578  -0.004819
     2  H    0.007595  -0.000521   0.000480  -0.003812   0.000538   0.004814
     3  H   -0.003457  -0.002445   0.006314   0.007498  -0.000387   0.000444
     4  H   -0.008831   0.013145  -0.003404  -0.006648  -0.000732  -0.002900
     5  C    0.000238   0.000031  -0.000067  -0.000036  -0.000304  -0.000011
     6  C    0.000003   0.000001  -0.000002  -0.000002  -0.000014  -0.000000
     7  C    0.000005  -0.000000   0.000000  -0.000000   0.000002   0.000000
     8  C   -0.000000   0.000000  -0.000000   0.000000   0.000000  -0.000000
     9  C    0.010297  -0.000409   0.000280  -0.000159   0.000548   0.000023
    10  C   -0.000080  -0.000013   0.000042   0.000040   0.000144   0.000016
    11  H    0.000275  -0.000002   0.000017  -0.000023  -0.000086   0.000023
    12  C    0.000714  -0.000024  -0.000118  -0.000021  -0.000073   0.000003
    13  H    0.000726  -0.000006  -0.000007  -0.000012   0.000004   0.000000
    14  C    0.000000  -0.000000   0.000000   0.000000   0.000000   0.000000
    15  N    0.000000   0.000000  -0.000000  -0.000000  -0.000000  -0.000000
    16  C   -0.000062   0.000001  -0.000001   0.000001  -0.000001  -0.000000
    17  H   -0.000000  -0.000000   0.000000   0.000000  -0.000000  -0.000000
    18  C    0.000000  -0.000000   0.000002   0.000001   0.000008   0.000001
    19  H   -0.000000   0.000000  -0.000000  -0.000000   0.000000  -0.000000
    20  N   -0.046849   0.004871  -0.001540  -0.003117   0.003570   0.000095
    21  H   -0.018012   0.003376  -0.002437  -0.001812  -0.002975  -0.000974
    22  C    0.000000   0.000000  -0.000000  -0.000000  -0.000000  -0.000000
    23  H   -0.000000   0.000000  -0.000000   0.000000  -0.000000  -0.000000
    24  C   -0.000000  -0.000000   0.000000  -0.000000   0.000000   0.000000
    25  O   -0.000000   0.000000  -0.000000  -0.000000   0.000000   0.000000
    26  O    0.000000  -0.000000  -0.000000  -0.000000  -0.000000  -0.000000
    27  C    0.365688  -0.037595  -0.013743   0.004050   0.016671   0.000013
    28  H   -0.015706  -0.000535  -0.012231  -0.000002   0.000409  -0.000004
    29  H   -0.009545  -0.005895   0.007641   0.004146  -0.005141  -0.000197
    30  N    0.335078  -0.036518  -0.036274   0.327783  -0.028104  -0.026174
    31  C    4.662687   0.386146   0.392448  -0.061034  -0.015651   0.008395
    32  H    0.386146   0.666571  -0.028931  -0.008244  -0.002881  -0.000212
    33  H    0.392448  -0.028931   0.632600   0.008604   0.000100  -0.000391
    34  C   -0.061034  -0.008244   0.008604   4.555658   0.404608   0.400125
    35  H   -0.015651  -0.002881   0.000100   0.404608   0.611783  -0.015682
    36  H    0.008395  -0.000212  -0.000391   0.400125  -0.015682   0.608821
    37  H   -0.000022   0.013584  -0.000565   0.389456  -0.034806  -0.029537
    38  C   -0.000000  -0.000000   0.000000   0.000000  -0.000000   0.000000
    39  H   -0.000000  -0.000000  -0.000000  -0.000000   0.000000   0.000000
    40  H    0.000000   0.000000   0.000000   0.000000  -0.000000   0.000000
    41  C   -0.000000  -0.000000  -0.000000  -0.000000   0.000000  -0.000000
    42  H    0.000000   0.000000   0.000000   0.000000  -0.000000   0.000000
    43  H   -0.000000  -0.000000   0.000000  -0.000000   0.000000   0.000000
    44  C    0.000000   0.000000   0.000000   0.000000  -0.000000   0.000000
    45  H   -0.000000  -0.000000  -0.000000  -0.000000   0.000000  -0.000000
    46  H    0.000000   0.000000   0.000000   0.000000  -0.000000   0.000000
    47  C   -0.000000  -0.000000  -0.000000  -0.000000   0.000000  -0.000000
    48  H    0.000000   0.000000   0.000000  -0.000000  -0.000000   0.000000
    49  H   -0.000000  -0.000000  -0.000000  -0.000000   0.000000  -0.000000
    50  H    0.000000   0.000000   0.000000   0.000000  -0.000000   0.000000
              37         38         39         40         41         42
     1  C   -0.003255  -0.000000   0.000000  -0.000000   0.000000  -0.000000
     2  H   -0.002676   0.000000   0.000000  -0.000000  -0.000000  -0.000000
     3  H   -0.000461   0.000000   0.000000  -0.000000  -0.000000  -0.000000
     4  H    0.013934  -0.000000  -0.000000   0.000000   0.000000   0.000000
     5  C    0.000009   0.000096   0.000002   0.000001  -0.000005   0.000003
     6  C    0.000000  -0.000072  -0.000176  -0.000188   0.000190  -0.000018
     7  C   -0.000000   0.009270   0.003701  -0.000361  -0.001266  -0.000131
     8  C   -0.000000   0.009444  -0.000375   0.003504  -0.001327   0.000063
     9  C   -0.000050  -0.000000   0.000000  -0.000000  -0.000000   0.000000
    10  C   -0.000007   0.000000  -0.000000   0.000001  -0.000000  -0.000000
    11  H    0.000001   0.000000   0.000000   0.000000  -0.000000   0.000000
    12  C   -0.000008   0.000001  -0.000003   0.000000   0.000000  -0.000000
    13  H   -0.000003  -0.000000  -0.000000   0.000000   0.000000   0.000000
    14  C   -0.000000  -0.023857   0.006014  -0.009720  -0.005013  -0.001329
    15  N    0.000000   0.215308  -0.022883  -0.023094  -0.032559  -0.009560
    16  C    0.000000  -0.000454   0.000003   0.000009   0.000028  -0.000024
    17  H   -0.000000  -0.000047  -0.000008  -0.000001   0.000007  -0.000011
    18  C   -0.000000   0.000001   0.000000  -0.000003   0.000000  -0.000000
    19  H    0.000000  -0.000000   0.000000  -0.000000   0.000000  -0.000000
    20  N    0.000219   0.000000   0.000000   0.000000   0.000000  -0.000000
    21  H    0.001473   0.000000   0.000000   0.000000  -0.000000   0.000000
    22  C    0.000000  -0.000430   0.000009   0.000008   0.000026  -0.000002
    23  H    0.000000  -0.000046  -0.000001  -0.000003   0.000006   0.000000
    24  C   -0.000000  -0.022176  -0.009777   0.005845  -0.004706   0.007366
    25  O   -0.000000   0.001931   0.000513   0.015428  -0.006202   0.000126
    26  O    0.000000   0.001986   0.016449   0.000520  -0.006543   0.006877
    27  C   -0.008571  -0.000000  -0.000000  -0.000000   0.000000  -0.000000
    28  H    0.000109  -0.000000   0.000000  -0.000000   0.000000  -0.000000
    29  H    0.000556   0.000000  -0.000000   0.000000  -0.000000   0.000000
    30  N   -0.043098  -0.000000   0.000000  -0.000000   0.000000  -0.000000
    31  C   -0.000022  -0.000000  -0.000000   0.000000  -0.000000   0.000000
    32  H    0.013584  -0.000000  -0.000000   0.000000  -0.000000   0.000000
    33  H   -0.000565   0.000000  -0.000000   0.000000  -0.000000   0.000000
    34  C    0.389456   0.000000  -0.000000   0.000000  -0.000000   0.000000
    35  H   -0.034806  -0.000000   0.000000  -0.000000   0.000000  -0.000000
    36  H   -0.029537   0.000000   0.000000   0.000000  -0.000000   0.000000
    37  H    0.674622  -0.000000   0.000000  -0.000000   0.000000  -0.000000
    38  C   -0.000000   4.627133   0.373961   0.375575   0.390159  -0.014540
    39  H    0.000000   0.373961   0.622656  -0.023072  -0.017811  -0.011404
    40  H   -0.000000   0.375575  -0.023072   0.623971  -0.019496   0.007859
    41  C    0.000000   0.390159  -0.017811  -0.019496   4.754276   0.370532
    42  H   -0.000000  -0.014540  -0.011404   0.007859   0.370532   0.658184
    43  H   -0.000000  -0.015192   0.007763  -0.011317   0.372090  -0.030326
    44  C   -0.000000  -0.049781  -0.004208  -0.003975   0.410639  -0.022413
    45  H    0.000000  -0.006466  -0.001769   0.007163  -0.026958   0.008251
    46  H   -0.000000  -0.006377   0.007135  -0.001768  -0.027068  -0.010013
    47  C    0.000000   0.009370   0.000078   0.000067  -0.060798  -0.004205
    48  H    0.000000  -0.000489   0.000013   0.000014   0.008115  -0.000082
    49  H    0.000000   0.000377  -0.000050   0.000023  -0.007886   0.006473
    50  H   -0.000000   0.000378   0.000023  -0.000049  -0.007916  -0.001491
              43         44         45         46         47         48
     1  C    0.000000  -0.000000   0.000000  -0.000000   0.000000   0.000000
     2  H   -0.000000  -0.000000  -0.000000  -0.000000   0.000000   0.000000
     3  H    0.000000  -0.000000   0.000000  -0.000000   0.000000   0.000000
     4  H   -0.000000   0.000000   0.000000   0.000000   0.000000   0.000000
     5  C    0.000002   0.000000  -0.000000  -0.000000  -0.000000  -0.000000
     6  C   -0.000022   0.000001   0.000000  -0.000000   0.000000  -0.000000
     7  C    0.000059  -0.000005   0.000000  -0.000003  -0.000000   0.000000
     8  C   -0.000003  -0.000003  -0.000003   0.000000  -0.000000   0.000000
     9  C   -0.000000   0.000000   0.000000  -0.000000  -0.000000   0.000000
    10  C    0.000000   0.000000  -0.000000   0.000000  -0.000000   0.000000
    11  H   -0.000000   0.000000  -0.000000   0.000000  -0.000000   0.000000
    12  C   -0.000000   0.000000  -0.000000   0.000000  -0.000000   0.000000
    13  H    0.000000  -0.000000   0.000000   0.000000   0.000000  -0.000000
    14  C    0.007502  -0.000072  -0.000110   0.000065  -0.000016   0.000000
    15  N   -0.009910   0.005133   0.000099   0.000103  -0.000175   0.000004
    16  C   -0.000002  -0.000000   0.000000   0.000000   0.000000   0.000000
    17  H    0.000000   0.000000   0.000000  -0.000000   0.000000   0.000000
    18  C   -0.000001   0.000000   0.000000  -0.000000  -0.000000   0.000000
    19  H   -0.000000  -0.000000   0.000000   0.000000   0.000000  -0.000000
    20  N    0.000000  -0.000000   0.000000  -0.000000   0.000000  -0.000000
    21  H    0.000000   0.000000   0.000000  -0.000000  -0.000000   0.000000
    22  C   -0.000024  -0.000000   0.000000   0.000000   0.000000   0.000000
    23  H   -0.000011   0.000000  -0.000000   0.000000   0.000000   0.000000
    24  C   -0.001318  -0.000096   0.000062  -0.000109  -0.000014   0.000000
    25  O    0.006607  -0.000184   0.000047  -0.000007   0.000002  -0.000000
    26  O    0.000139  -0.000172  -0.000007   0.000046   0.000001  -0.000000
    27  C   -0.000000  -0.000000   0.000000  -0.000000   0.000000  -0.000000
    28  H    0.000000  -0.000000   0.000000  -0.000000   0.000000  -0.000000
    29  H   -0.000000   0.000000  -0.000000   0.000000  -0.000000   0.000000
    30  N   -0.000000  -0.000000   0.000000  -0.000000   0.000000   0.000000
    31  C   -0.000000   0.000000  -0.000000   0.000000  -0.000000   0.000000
    32  H   -0.000000   0.000000  -0.000000   0.000000  -0.000000   0.000000
    33  H    0.000000   0.000000  -0.000000   0.000000  -0.000000   0.000000
    34  C   -0.000000   0.000000  -0.000000   0.000000  -0.000000  -0.000000
    35  H    0.000000  -0.000000   0.000000  -0.000000   0.000000  -0.000000
    36  H    0.000000   0.000000  -0.000000   0.000000  -0.000000   0.000000
    37  H   -0.000000  -0.000000   0.000000  -0.000000   0.000000   0.000000
    38  C   -0.015192  -0.049781  -0.006466  -0.006377   0.009370  -0.000489
    39  H    0.007763  -0.004208  -0.001769   0.007135   0.000078   0.000013
    40  H   -0.011317  -0.003975   0.007163  -0.001768   0.000067   0.000014
    41  C    0.372090   0.410639  -0.026958  -0.027068  -0.060798   0.008115
    42  H   -0.030326  -0.022413   0.008251  -0.010013  -0.004205  -0.000082
    43  H    0.657553  -0.022852  -0.010007   0.008265  -0.004112  -0.000086
    44  C   -0.022852   4.666486   0.386886   0.386946   0.424367  -0.017525
    45  H   -0.010007   0.386886   0.662543  -0.031012  -0.025677  -0.005494
    46  H    0.008265   0.386946  -0.031012   0.662529  -0.025723  -0.005494
    47  C   -0.004112   0.424367  -0.025677  -0.025723   4.584008   0.388524
    48  H   -0.000086  -0.017525  -0.005494  -0.005494   0.388524   0.629525
    49  H   -0.001498  -0.023597   0.007685  -0.008641   0.397191  -0.022780
    50  H    0.006499  -0.023551  -0.008649   0.007682   0.397154  -0.022770
              49         50
     1  C    0.000000   0.000000
     2  H    0.000000   0.000000
     3  H    0.000000   0.000000
     4  H    0.000000   0.000000
     5  C    0.000000   0.000000
     6  C    0.000000   0.000000
     7  C   -0.000000  -0.000000
     8  C   -0.000000  -0.000000
     9  C   -0.000000  -0.000000
    10  C   -0.000000  -0.000000
    11  H   -0.000000   0.000000
    12  C   -0.000000   0.000000
    13  H    0.000000  -0.000000
    14  C   -0.000001  -0.000002
    15  N    0.000000   0.000001
    16  C   -0.000000  -0.000000
    17  H    0.000000  -0.000000
    18  C    0.000000   0.000000
    19  H   -0.000000   0.000000
    20  N    0.000000  -0.000000
    21  H    0.000000  -0.000000
    22  C   -0.000000  -0.000000
    23  H   -0.000000   0.000000
    24  C   -0.000002  -0.000001
    25  O    0.000000  -0.000008
    26  O   -0.000009   0.000000
    27  C    0.000000  -0.000000
    28  H    0.000000  -0.000000
    29  H   -0.000000   0.000000
    30  N    0.000000  -0.000000
    31  C   -0.000000   0.000000
    32  H   -0.000000   0.000000
    33  H   -0.000000   0.000000
    34  C   -0.000000   0.000000
    35  H    0.000000  -0.000000
    36  H   -0.000000   0.000000
    37  H    0.000000  -0.000000
    38  C    0.000377   0.000378
    39  H   -0.000050   0.000023
    40  H    0.000023  -0.000049
    41  C   -0.007886  -0.007916
    42  H    0.006473  -0.001491
    43  H   -0.001498   0.006499
    44  C   -0.023597  -0.023551
    45  H    0.007685  -0.008649
    46  H   -0.008641   0.007682
    47  C    0.397191   0.397154
    48  H   -0.022780  -0.022770
    49  H    0.632306  -0.024818
    50  H   -0.024818   0.632318
 Mulliken charges:
               1
     1  C    0.043485
     2  H    0.056662
     3  H    0.055970
     4  H    0.024062
     5  C    0.023109
     6  C    0.120824
     7  C   -0.091987
     8  C   -0.100846
     9  C    0.121954
    10  C   -0.068662
    11  H    0.053790
    12  C   -0.138805
    13  H    0.037131
    14  C    0.279765
    15  N   -0.363138
    16  C   -0.034776
    17  H    0.041681
    18  C   -0.032539
    19  H    0.052945
    20  N   -0.215778
    21  H    0.167414
    22  C   -0.036201
    23  H    0.046411
    24  C    0.268423
    25  O   -0.326720
    26  O   -0.336418
    27  C    0.061052
    28  H    0.078010
    29  H    0.066921
    30  N   -0.460144
    31  C    0.063884
    32  H    0.039859
    33  H    0.057232
    34  C    0.031872
    35  H    0.061873
    36  H    0.058127
    37  H    0.029093
    38  C    0.124938
    39  H    0.053217
    40  H    0.053059
    41  C   -0.080514
    42  H    0.039815
    43  H    0.040202
    44  C   -0.112022
    45  H    0.043416
    46  H    0.043444
    47  C   -0.080040
    48  H    0.048524
    49  H    0.045225
    50  H    0.045200
 Sum of Mulliken charges =  -0.00000
 Mulliken charges with hydrogens summed into heavy atoms:
               1
     1  C    0.180179
     5  C    0.023109
     6  C    0.120824
     7  C   -0.091987
     8  C   -0.100846
     9  C    0.121954
    10  C   -0.014872
    12  C   -0.101674
    14  C    0.279765
    15  N   -0.363138
    16  C    0.006905
    18  C    0.020406
    20  N   -0.048364
    22  C    0.010210
    24  C    0.268423
    25  O   -0.326720
    26  O   -0.336418
    27  C    0.205983
    30  N   -0.460144
    31  C    0.160975
    34  C    0.180966
    38  C    0.231214
    41  C   -0.000497
    44  C   -0.025162
    47  C    0.058909
 Electronic spatial extent (au):  <R**2>=          13390.1308
 Charge=             -0.0000 electrons
 Dipole moment (field-independent basis, Debye):
    X=             11.9515    Y=              0.3051    Z=              1.1064  Tot=             12.0064
 Quadrupole moment (field-independent basis, Debye-Ang):
   XX=           -117.2810   YY=           -150.8703   ZZ=           -150.8564
   XY=             -1.1509   XZ=             -0.2315   YZ=             -0.1949
 Traceless Quadrupole moment (field-independent basis, Debye-Ang):
   XX=             22.3883   YY=            -11.2011   ZZ=            -11.1872
   XY=             -1.1509   XZ=             -0.2315   YZ=             -0.1949
 Octapole moment (field-independent basis, Debye-Ang**2):
  XXX=            238.6053  YYY=             17.7511  ZZZ=              5.9599  XYY=             82.6784
  XXY=            -28.1952  XXZ=             13.8529  XZZ=             11.4603  YZZ=             -1.6403
  YYZ=              6.0005  XYZ=              7.7616
 Hexadecapole moment (field-independent basis, Debye-Ang**3):
 XXXX=         -13715.3154 YYYY=          -1940.4105 ZZZZ=           -777.7975 XXXY=             63.8338
 XXXZ=             98.1686 YYYX=             -2.8788 YYYZ=              9.9925 ZZZX=             55.4970
 ZZZY=              7.7554 XXYY=          -2965.0903 XXZZ=          -2616.1626 YYZZ=           -486.6219
 XXYZ=             17.5322 YYXZ=            -24.0741 ZZXY=             -6.2575
 N-N= 2.130075308887D+03 E-N=-6.791138002298D+03  KE= 1.079252117242D+03
 Unable to Open any file for archive entry.
 1\1\GINC-X1003C1S1B1N0\SP\RM062X TD-FC\def2SVP\C20H25N3O2\1008721\10-O
 ct-2025\0\\# td=(nstates=6) scrf=(smd,solvent=ethanol) def2svp m062x\\
 BN-1_ethanol_m062x_m062x_m062x\\0,1\C,0,7.177374,0.765446,0.409885\H
 ,0,7.277517,1.626558,1.086114\H,0,7.244027,1.13048,-0.62511\H,0,8.0378
 06,0.087028,0.590375\C,0,1.149733,0.572127,-0.330195\C,0,-0.257634,0.3
 81858,-0.406629\C,0,-0.809616,-0.918042,-0.535917\C,0,-1.114613,1.5094
 72,-0.346494\C,0,2.017815,-0.591923,-0.38101\C,0,1.646068,1.891363,-0.
 210393\H,0,2.720053,2.079637,-0.16281\C,0,1.429926,-1.863715,-0.508998
 \H,0,2.061138,-2.750025,-0.542634\C,0,-2.584722,1.328735,-0.416721\N,0
 ,-3.057689,0.036059,-0.596104\C,0,0.046453,-2.011079,-0.58383\H,0,-0.3
 83735,-3.009959,-0.679314\C,0,0.79276,2.977612,-0.15605\H,0,1.199718,3
 .984997,-0.064313\N,0,3.352571,-0.444795,-0.315375\H,0,3.756412,0.4539
 06,-0.066743\C,0,-0.597387,2.786045,-0.220493\H,0,-1.281376,3.634869,-
 0.176311\C,0,-2.257823,-1.114093,-0.61472\O,0,-3.360061,2.265715,-0.32
 9028\O,0,-2.783142,-2.213657,-0.697727\C,0,4.294466,-1.540981,-0.27851
 1\H,0,4.15341,-2.199421,-1.149761\H,0,4.134867,-2.161962,0.621177\N,0,
 5.901958,0.109953,0.626819\C,0,5.709698,-0.978387,-0.317945\H,0,6.4242
 52,-1.81071,-0.145573\H,0,5.905106,-0.583324,-1.326893\C,0,5.766804,-0
 .325496,2.004607\H,0,4.75364,-0.706454,2.197947\H,0,5.935378,0.526025,
 2.678909\H,0,6.493634,-1.122651,2.269163\C,0,-4.509019,-0.148025,-0.66
 8814\H,0,-4.696055,-1.023636,-1.300841\H,0,-4.927168,0.736334,-1.16359
 7\C,0,-5.139873,-0.338303,0.705121\H,0,-4.680424,-1.215114,1.191315\H,
 0,-4.90845,0.539983,1.33075\C,0,-6.650445,-0.527747,0.620725\H,0,-7.09
 6923,0.346273,0.117511\H,0,-6.870446,-1.398205,-0.019849\C,0,-7.294508
 ,-0.718893,1.987823\H,0,-8.382754,-0.854364,1.906012\H,0,-6.882838,-1.
 603847,2.497314\H,0,-7.111779,0.152768,2.635151\\Version=ES64L-G16RevC
 .01\State=1-A\HF=-1090.7075575\RMSD=3.979e-09\PG=C01 [X(C20H25N3O2)]\\
 @
 The archive entry for this job was punched.


 Boundary, n.  In political geography, an imaginary
 line between two nations, separating the imaginary
 rights of one from the imaginary rights of another.
                               -- Ambrose Bierce
 Job cpu time:       0 days  4 hours 37 minutes 54.2 seconds.
 Elapsed time:       0 days  0 hours  8 minutes 51.6 seconds.
 File lengths (MBytes):  RWF=   1775 Int=      0 D2E=      0 Chk=     62 Scr=      1
 Normal termination of Gaussian 16 at Fri Oct 10 13:21:29 2025.
