 Entering Gaussian System, Link 0=g16
 Initial command:
 /home/users/sutd/1008721/g16/l1.exe "/home/users/sutd/1008721/scratch/g16/scratch/Gau-328658.inp" -scrdir="/home/users/sutd/1008721/scratch/g16/scratch/"
 Entering Link 1 = /home/users/sutd/1008721/g16/l1.exe PID=    328659.
  
 Copyright (c) 1988-2019, Gaussian, Inc.  All Rights Reserved.
  
 This is part of the Gaussian(R) 16 program.  It is based on
 the Gaussian(R) 09 system (copyright 2009, Gaussian, Inc.),
 the Gaussian(R) 03 system (copyright 2003, Gaussian, Inc.),
 the Gaussian(R) 98 system (copyright 1998, Gaussian, Inc.),
 the Gaussian(R) 94 system (copyright 1995, Gaussian, Inc.),
 the Gaussian 92(TM) system (copyright 1992, Gaussian, Inc.),
 the Gaussian 90(TM) system (copyright 1990, Gaussian, Inc.),
 the Gaussian 88(TM) system (copyright 1988, Gaussian, Inc.),
 the Gaussian 86(TM) system (copyright 1986, Carnegie Mellon
 University), and the Gaussian 82(TM) system (copyright 1983,
 Carnegie Mellon University). Gaussian is a federally registered
 trademark of Gaussian, Inc.
  
 This software contains proprietary and confidential information,
 including trade secrets, belonging to Gaussian, Inc.
  
 This software is provided under written license and may be
 used, copied, transmitted, or stored only in accord with that
 written license.
  
 The following legend is applicable only to US Government
 contracts under FAR:
  
                    RESTRICTED RIGHTS LEGEND
  
 Use, reproduction and disclosure by the US Government is
 subject to restrictions as set forth in subparagraphs (a)
 and (c) of the Commercial Computer Software - Restricted
 Rights clause in FAR 52.227-19.
  
 Gaussian, Inc.
 340 Quinnipiac St., Bldg. 40, Wallingford CT 06492
  
  
 ---------------------------------------------------------------
 Warning -- This program may not be used in any manner that
 competes with the business of Gaussian, Inc. or will provide
 assistance to any competitor of Gaussian, Inc.  The licensee
 of this program is prohibited from giving any competitor of
 Gaussian, Inc. access to this program.  By using this program,
 the user acknowledges that Gaussian, Inc. is engaged in the
 business of creating and licensing software in the field of
 computational chemistry and represents and warrants to the
 licensee that it is not a competitor of Gaussian, Inc. and that
 it will not use this program in any manner prohibited above.
 ---------------------------------------------------------------
  

 Cite this work as:
 Gaussian 16, Revision C.01,
 M. J. Frisch, G. W. Trucks, H. B. Schlegel, G. E. Scuseria, 
 M. A. Robb, J. R. Cheeseman, G. Scalmani, V. Barone, 
 G. A. Petersson, H. Nakatsuji, X. Li, M. Caricato, A. V. Marenich, 
 J. Bloino, B. G. Janesko, R. Gomperts, B. Mennucci, H. P. Hratchian, 
 J. V. Ortiz, A. F. Izmaylov, J. L. Sonnenberg, D. Williams-Young, 
 F. Ding, F. Lipparini, F. Egidi, J. Goings, B. Peng, A. Petrone, 
 T. Henderson, D. Ranasinghe, V. G. Zakrzewski, J. Gao, N. Rega, 
 G. Zheng, W. Liang, M. Hada, M. Ehara, K. Toyota, R. Fukuda, 
 J. Hasegawa, M. Ishida, T. Nakajima, Y. Honda, O. Kitao, H. Nakai, 
 T. Vreven, K. Throssell, J. A. Montgomery, Jr., J. E. Peralta, 
 F. Ogliaro, M. J. Bearpark, J. J. Heyd, E. N. Brothers, K. N. Kudin, 
 V. N. Staroverov, T. A. Keith, R. Kobayashi, J. Normand, 
 K. Raghavachari, A. P. Rendell, J. C. Burant, S. S. Iyengar, 
 J. Tomasi, M. Cossi, J. M. Millam, M. Klene, C. Adamo, R. Cammi, 
 J. W. Ochterski, R. L. Martin, K. Morokuma, O. Farkas, 
 J. B. Foresman, and D. J. Fox, Gaussian, Inc., Wallingford CT, 2019.
 
 ******************************************
 Gaussian 16:  ES64L-G16RevC.01  3-Jul-2019
                10-Oct-2025 
 ******************************************
 %nprocshared=32
 Will use up to   32 processors via shared memory.
 %mem=64GB
 %chk=03BN-1_ethanol_m062x_m062x_m062x.chk
 ----------------------------------------------------------------------
 # td=(nstates=3,root=1) scrf=(smd,solvent=ethanol,correctedlr) def2svp
  m062x
 ----------------------------------------------------------------------
 1/30=1,38=1,172=1/1;
 2/12=2,17=6,18=5,40=1/2;
 3/5=43,7=101,11=9,25=1,30=1,70=32201,71=1,72=4,74=-55/1,2,3,8;
 4//1;
 5/5=2,38=5,53=4/2;
 8/6=1,10=1,107=1,108=3/1;
 9/8=1,15=1,41=3,42=1,70=2,73=21/14;
 10/5=4,13=10,28=1,74=10/2;
 6/7=2,8=2,9=2,10=2,22=-1/1;
 99/5=1,9=1/99;
 --------------------------------
 BN-1_ethanol_m062x_m062x_m062x
 --------------------------------
 Symbolic Z-matrix:
 Charge =  0 Multiplicity = 1
 C                     7.17737   0.76545   0.40989 
 H                     7.27752   1.62656   1.08611 
 H                     7.24403   1.13048  -0.62511 
 H                     8.03781   0.08703   0.59038 
 C                     1.14973   0.57213  -0.3302 
 C                    -0.25763   0.38186  -0.40663 
 C                    -0.80962  -0.91804  -0.53592 
 C                    -1.11461   1.50947  -0.34649 
 C                     2.01782  -0.59192  -0.38101 
 C                     1.64607   1.89136  -0.21039 
 H                     2.72005   2.07964  -0.16281 
 C                     1.42993  -1.86372  -0.509 
 H                     2.06114  -2.75003  -0.54263 
 C                    -2.58472   1.32874  -0.41672 
 N                    -3.05769   0.03606  -0.5961 
 C                     0.04645  -2.01108  -0.58383 
 H                    -0.38374  -3.00996  -0.67931 
 C                     0.79276   2.97761  -0.15605 
 H                     1.19972   3.985    -0.06431 
 N                     3.35257  -0.4448   -0.31538 
 H                     3.75641   0.45391  -0.06674 
 C                    -0.59739   2.78605  -0.22049 
 H                    -1.28138   3.63487  -0.17631 
 C                    -2.25782  -1.11409  -0.61472 
 O                    -3.36006   2.26572  -0.32903 
 O                    -2.78314  -2.21366  -0.69773 
 C                     4.29447  -1.54098  -0.27851 
 H                     4.15341  -2.19942  -1.14976 
 H                     4.13487  -2.16196   0.62118 
 N                     5.90196   0.10995   0.62682 
 C                     5.7097   -0.97839  -0.31795 
 H                     6.42425  -1.81071  -0.14557 
 H                     5.90511  -0.58332  -1.32689 
 C                     5.7668   -0.3255    2.00461 
 H                     4.75364  -0.70645   2.19795 
 H                     5.93538   0.52603   2.67891 
 H                     6.49363  -1.12265   2.26916 
 C                    -4.50902  -0.14803  -0.66881 
 H                    -4.69606  -1.02364  -1.30084 
 H                    -4.92717   0.73633  -1.1636 
 C                    -5.13987  -0.3383    0.70512 
 H                    -4.68042  -1.21511   1.19132 
 H                    -4.90845   0.53998   1.33075 
 C                    -6.65045  -0.52775   0.62073 
 H                    -7.09692   0.34627   0.11751 
 H                    -6.87045  -1.39821  -0.01985 
 C                    -7.29451  -0.71889   1.98782 
 H                    -8.38275  -0.85436   1.90601 
 H                    -6.88284  -1.60385   2.49731 
 H                    -7.11178   0.15277   2.63515 
 
                          Input orientation:                          
 ---------------------------------------------------------------------
 Center     Atomic      Atomic             Coordinates (Angstroms)
 Number     Number       Type             X           Y           Z
 ---------------------------------------------------------------------
      1          6           0        7.177374    0.765446    0.409885
      2          1           0        7.277517    1.626558    1.086114
      3          1           0        7.244027    1.130480   -0.625110
      4          1           0        8.037806    0.087028    0.590375
      5          6           0        1.149733    0.572127   -0.330195
      6          6           0       -0.257634    0.381858   -0.406629
      7          6           0       -0.809616   -0.918042   -0.535917
      8          6           0       -1.114613    1.509472   -0.346494
      9          6           0        2.017815   -0.591923   -0.381010
     10          6           0        1.646068    1.891363   -0.210393
     11          1           0        2.720053    2.079637   -0.162810
     12          6           0        1.429926   -1.863715   -0.508998
     13          1           0        2.061138   -2.750025   -0.542634
     14          6           0       -2.584722    1.328735   -0.416721
     15          7           0       -3.057689    0.036059   -0.596104
     16          6           0        0.046453   -2.011079   -0.583830
     17          1           0       -0.383735   -3.009959   -0.679314
     18          6           0        0.792760    2.977612   -0.156050
     19          1           0        1.199718    3.984997   -0.064313
     20          7           0        3.352571   -0.444795   -0.315375
     21          1           0        3.756412    0.453906   -0.066743
     22          6           0       -0.597387    2.786045   -0.220493
     23          1           0       -1.281376    3.634869   -0.176311
     24          6           0       -2.257823   -1.114093   -0.614720
     25          8           0       -3.360061    2.265715   -0.329028
     26          8           0       -2.783142   -2.213657   -0.697727
     27          6           0        4.294466   -1.540981   -0.278511
     28          1           0        4.153410   -2.199421   -1.149761
     29          1           0        4.134867   -2.161962    0.621177
     30          7           0        5.901958    0.109953    0.626819
     31          6           0        5.709698   -0.978387   -0.317945
     32          1           0        6.424252   -1.810710   -0.145573
     33          1           0        5.905106   -0.583324   -1.326893
     34          6           0        5.766804   -0.325496    2.004607
     35          1           0        4.753640   -0.706454    2.197947
     36          1           0        5.935378    0.526025    2.678909
     37          1           0        6.493634   -1.122651    2.269163
     38          6           0       -4.509019   -0.148025   -0.668814
     39          1           0       -4.696055   -1.023636   -1.300841
     40          1           0       -4.927168    0.736334   -1.163597
     41          6           0       -5.139873   -0.338303    0.705121
     42          1           0       -4.680424   -1.215114    1.191315
     43          1           0       -4.908450    0.539983    1.330750
     44          6           0       -6.650445   -0.527747    0.620725
     45          1           0       -7.096923    0.346273    0.117511
     46          1           0       -6.870446   -1.398205   -0.019849
     47          6           0       -7.294508   -0.718893    1.987823
     48          1           0       -8.382754   -0.854364    1.906012
     49          1           0       -6.882838   -1.603847    2.497314
     50          1           0       -7.111779    0.152768    2.635151
 ---------------------------------------------------------------------
                    Distance matrix (angstroms):
                    1          2          3          4          5
     1  C    0.000000
     2  H    1.099467   0.000000
     3  H    1.099503   1.781994   0.000000
     4  H    1.110482   1.787162   1.787815   0.000000
     5  C    6.075981   6.377107   6.126920   6.966227   0.000000
     6  C    7.489538   7.781777   7.542088   8.360339   1.422226
     7  C    8.217097   8.631784   8.310569   8.975276   2.470217
     8  C    8.359589   8.514336   8.371865   9.309557   2.450744
     9  C    5.393423   5.893944   5.508135   6.135540   1.452983
    10  C    5.678713   5.784831   5.664634   6.689631   1.414597
    11  H    4.682178   4.747164   4.645531   5.728549   2.183234
    12  C    6.386704   6.994334   6.540830   6.976969   2.458415
    13  H    6.280263   7.001279   6.475142   6.712164   3.451447
    14  C    9.813210   9.980530   9.832957  10.742168   3.811312
    15  N   10.310215  10.591318  10.359727  11.158868   4.249762
    16  C    7.716644   8.264950   7.853418   8.345210   2.820374
    17  H    8.521174   9.127366   8.679224   9.062328   3.912128
    18  C    6.780653   6.739465   6.726868   7.836027   2.438055
    19  H    6.806081   6.620072   6.707938   7.898242   3.423576
    20  N    4.076739   4.654017   4.209615   4.801525   2.426282
    21  H    3.468027   3.886177   3.596246   4.347038   2.622624
    22  C    8.057736   8.066334   8.024487   9.083433   2.822392
    23  H    8.951406   8.881536   8.896959  10.001107   3.913357
    24  C    9.674990  10.066117   9.763369  10.435273   3.812575
    25  O   10.669317  10.750312  10.668791  11.640591   4.817311
    26  O   10.455321  10.915411  10.570366  11.137561   4.833547
    27  C    3.755616   4.560055   3.994589   4.173484   3.789095
    28  H    4.513013   5.421927   4.573337   4.831610   4.168362
    29  H    4.227435   4.944219   4.696837   4.504646   4.158290
    30  N    1.450316   2.098382   2.099988   2.136282   4.869612
    31  C    2.392648   3.348907   2.625992   2.716660   4.816381
    32  H    2.740859   3.749657   3.090726   2.597419   5.790729
    33  H    2.540520   3.548196   2.285242   2.945114   4.994201
    34  C    2.392279   2.633704   3.349248   2.706968   5.251131
    35  H    3.352334   3.612350   4.188795   3.741610   4.584148
    36  H    2.597758   2.355739   3.604784   2.995813   5.653250
    37  H    2.736663   3.093902   3.743862   2.581883   6.179499
    38  C   11.771568  12.047877  11.822461  12.612043   5.714434
    39  H   12.128714  12.493499  12.151641  12.921358   6.136925
    40  H   12.206418  12.442188  12.189475  13.099182   6.135980
    41  C   12.370125  12.577655  12.541444  13.185041   6.438937
    42  H   12.047432  12.291400  12.287951  12.798831   6.284899
    43  H   12.122952  12.236760  12.323018  12.975318   6.281827
    44  C   13.889758  14.101267  14.048422  14.701142   7.934529
    45  H   14.283443  14.463812  14.381562  15.144333   8.261888
    46  H   14.219961  14.509900  14.351966  14.994475   8.264490
    47  C   14.633131  14.787093  14.886793  15.416946   8.851279
    48  H   15.715590  15.876753  15.954387  16.500058   9.894635
    49  H   14.410429  14.592555  14.723939  15.136746   8.789304
    50  H   14.474359  14.547282  14.753792  15.287098   8.787589
                    6          7          8          9         10
     6  C    0.000000
     7  C    1.418147   0.000000
     8  C    1.417583   2.453921   0.000000
     9  C    2.475192   2.850389   3.772156   0.000000
    10  C    2.437457   3.745545   2.790291   2.516747   0.000000
    11  H    3.436353   4.645842   3.881171   2.770917   1.091400
    12  C    2.810860   2.431166   4.228413   1.406929   3.773128
    13  H    3.899217   3.405501   5.316689   2.164579   4.671739
    14  C    2.512373   2.865871   1.482841   4.987339   4.273021
    15  N    2.827682   2.442901   2.451284   5.118727   5.071120
    16  C    2.418681   1.389201   3.714658   2.437500   4.234062
    17  H    3.405096   2.139639   4.590230   3.421012   5.325687
    18  C    2.811415   4.229424   2.414493   3.780601   1.382398
    19  H    3.901752   5.319739   3.400585   4.660234   2.145663
    20  N    3.704762   4.194807   4.876050   1.344443   2.894963
    21  H    4.029054   4.790718   4.991930   2.053105   2.557434
    22  C    2.435199   3.723546   1.383126   4.275011   2.415295
    23  H    3.418066   4.591391   2.138711   5.365849   3.407478
    24  C    2.506377   1.463540   2.874364   4.313741   4.943340
    25  O    3.630426   4.084591   2.369440   6.090185   5.021508
    26  O    3.633129   2.366349   4.095002   5.077354   6.058596
    27  C    4.943211   5.148394   6.210316   2.468675   4.335855
    28  H    5.164548   5.162399   6.492549   2.781330   4.889140
    29  H    5.178945   5.228204   6.478646   2.819807   4.828568
    30  N    6.251601   6.888683   7.220683   4.073686   4.689024
    31  C    6.121044   6.523236   7.263710   3.712591   4.975954
    32  H    7.037265   7.299183   8.240052   4.577943   6.044881
    33  H    6.305381   6.769429   7.390361   4.000725   5.050748
    34  C    6.527500   7.074933   7.499912   4.451637   5.176983
    35  H    5.751618   6.202306   6.769114   3.761499   4.712299
    36  H    6.920602   7.610215   7.734507   5.095116   5.348868
    37  H    7.416403   7.826097   8.464937   5.228580   6.223454
    38  C    4.292294   3.781028   3.791198   6.548239   6.500335
    39  H    4.740739   3.962407   4.489336   6.790325   7.064617
    40  H    4.743754   4.481649   3.975044   7.114035   6.741671
    41  C    5.058743   4.541740   4.552240   7.244067   7.201290
    42  H    4.966368   4.249087   4.743757   6.908472   7.186062
    43  H    4.967251   4.733996   4.259842   7.223883   6.867536
    44  C    6.538415   5.967029   5.977559   8.726186   8.681876
    45  H    6.859436   6.446370   6.111985   9.176447   8.884521
    46  H    6.859118   6.101684   6.456849   8.932061   9.131735
    47  C    7.514163   6.961519   6.971782   9.609727   9.569717
    48  H    8.537806   7.957355   7.967897  10.652285  10.611101
    49  H    7.501282   6.823111   7.145098   9.409058   9.606790
    50  H    7.502280   7.135795   6.833510   9.643717   9.371217
                   11         12         13         14         15
    11  H    0.000000
    12  C    4.163448   0.000000
    13  H    4.889179   1.088625   0.000000
    14  C    5.363671   5.130073   6.183539   0.000000
    15  N    6.143798   4.873953   5.828165   1.388124   0.000000
    16  C    4.905033   1.393310   2.146321   4.255040   3.718417
    17  H    5.983666   2.152266   2.462448   4.872121   4.054033
    18  C    2.126232   4.895815   5.879120   3.767510   4.865423
    19  H    2.439573   5.870108   6.806714   4.637015   5.831160
    20  N    2.606935   2.397371   2.652081   6.197348   6.434397
    21  H    1.930355   3.313532   3.655899   6.410756   6.847393
    22  C    3.392307   5.080699   6.149764   2.472197   3.708988
    23  H    4.293060   6.139728   7.216195   2.659842   4.035213
    24  C    5.931558   3.764652   4.618971   2.472544   1.401065
    25  O    6.085231   6.326813   7.388686   1.219333   2.265861
    26  O    7.000262   4.231787   4.876350   3.559055   2.268684
    27  C    3.949815   2.891863   2.553292   7.455039   7.526095
    28  H    4.619407   2.817914   2.247080   7.641182   7.569931
    29  H    4.539548   2.946685   2.449618   7.642975   7.618788
    30  N    3.824616   5.018418   4.929401   8.637022   9.043024
    31  C    4.279434   4.374558   4.062164   8.609876   8.830263
    32  H    5.371796   5.007812   4.480707   9.544174   9.670612
    33  H    4.311730   4.726054   4.481712   8.749946   9.013844
    34  C    4.445790   5.243361   5.108692   8.851401   9.206851
    35  H    4.179827   4.440031   4.351613   8.051710   8.329160
    36  H    4.563704   6.014375   6.010040   9.100515   9.583373
    37  H    5.514441   5.823100   5.495595   9.779561  10.038931
    38  C    7.581425   6.183866   7.067764   2.438707   1.464764
    39  H    8.119364   6.233810   7.015337   3.282232   2.074572
    40  H    7.828539   6.899377   7.834329   2.528995   2.075424
    41  C    8.269110   6.852972   7.695964   3.250591   2.483712
    42  H    8.213166   6.375588   7.128197   3.667276   2.719112
    43  H    7.924349   7.024062   7.931512   3.012556   2.718827
    44  C    9.758002   8.267616   9.065517   4.588346   3.834898
    45  H    9.972770   8.830839   9.689837   4.648720   4.113501
    46  H   10.202622   8.327793   9.048421   5.095207   4.114158
    47  C   10.618306   9.146610   9.902364   5.670687   5.019688
    48  H   11.668792  10.155774  10.893313   6.616509   5.950610
    49  H   10.623551   8.843500   9.515761   5.963677   5.185585
    50  H   10.402227   9.322693  10.132469   5.584896   5.185583
                   16         17         18         19         20
    16  C    0.000000
    17  H    1.091760   0.000000
    18  C    5.062312   6.124455   0.000000
    19  H    6.128038   7.198261   1.090346   0.000000
    20  N    3.668205   4.546702   4.276785   4.931619   0.000000
    21  H    4.484119   5.432718   3.893623   4.359506   1.016154
    22  C    4.853755   5.818060   1.404763   2.165979   5.103871
    23  H    5.814287   6.724025   2.175876   2.508179   6.175473
    24  C    2.472898   2.666587   5.124303   6.185326   5.658099
    25  O    5.473594   6.067450   4.216947   4.880327   7.239232
    26  O    2.839123   2.528159   6.326908   7.395113   6.397034
    27  C    4.284837   4.919767   5.717921   6.337174   1.445735
    28  H    4.150042   4.632923   6.251648   6.938986   2.101489
    29  H    4.264966   4.777880   6.179723   6.846174   2.106604
    30  N    6.344398   7.137911   5.911028   6.132266   2.773959
    31  C    5.762768   6.433335   6.312877   6.711142   2.416769
    32  H    6.395978   6.933380   7.392012   7.803370   3.365974
    33  H    6.075726   6.771812   6.339339   6.678648   2.749144
    34  C    6.501047   7.227649   6.349809   6.612039   3.350384
    35  H    5.621204   6.322767   5.899340   6.305386   2.889333
    36  H    7.194567   7.981982   6.363473   6.474274   4.071747
    37  H    7.105985   7.717101   7.429252   7.717430   4.123785
    38  C    4.922450   5.020831   6.175872   7.073682   7.875125
    39  H    4.896992   4.788306   6.888223   7.834255   8.129365
    40  H    5.711507   5.908640   6.225436   7.021465   8.406463
    41  C    5.599781   5.628077   6.850769   7.711898   8.554201
    42  H    5.111562   5.018193   7.024962   7.949454   8.209294
    43  H    5.892758   6.092248   6.376238   7.150108   8.480801
    44  C    6.964170   6.864629   8.263911   9.080705  10.047064
    45  H    7.554919   7.547590   8.321411   9.061326  10.488332
    46  H    6.966863   6.716403   8.825591   9.700948  10.271631
    47  C    7.884976   7.753798   9.146816   9.924199  10.896795
    48  H    8.865034   8.678410  10.155107  10.914457  11.950739
    49  H    7.594364   7.369291   9.324426  10.155039  10.677931
    50  H    8.141521   8.139723   8.846032   9.542225  10.888770
                   21         22         23         24         25
    21  H    0.000000
    22  C    4.941465   0.000000
    23  H    5.959013   1.091007   0.000000
    24  C    6.239385   4.257175   4.868089   0.000000
    25  O    7.348172   2.813342   2.493760   3.566462   0.000000
    26  O    7.090825   5.477435   6.060729   1.221430   4.531396
    27  C    2.076998   6.531213   7.608540   6.574782   8.548992
    28  H    2.893213   6.948991   8.032649   6.524424   8.778570
    29  H    2.731159   6.898218   7.973389   6.594843   8.756778
    30  N    2.280943   7.079611   8.041787   8.343964   9.557507
    31  C    2.435137   7.345731   8.377190   7.974201   9.632489
    32  H    3.500296   8.392805   9.435676   8.722603  10.601117
    33  H    2.698279   7.406699   8.412046   8.211109   9.744541
    34  C    2.989922   7.425341   8.373633   8.478054   9.770358
    35  H    2.733079   6.832268   7.804204   7.565572   9.002863
    36  H    3.505952   7.496082   8.360546   8.981454   9.923678
    37  H    3.928660   8.471061   9.437432   9.214383  10.739037
    38  C    8.309161   4.910257   4.997052   2.450326   2.694754
    39  H    8.668929   5.699114   5.884409   2.534545   3.680914
    40  H    8.757135   4.882393   4.761096   3.294047   2.343360
    41  C    8.964779   5.590393   5.608121   3.263440   3.319353
    42  H    8.691866   5.888435   6.078344   3.023403   4.021315
    43  H    8.777256   5.102589   5.000522   3.680577   2.851407
    44  C   10.475635   6.951861   6.840288   4.600571   4.419512
    45  H   10.855433   6.950590   6.687435   5.107418   4.224665
    46  H   10.787151   7.543174   7.522900   4.659494   5.083572
    47  C   11.301307   7.874813   7.732818   5.683099   5.454865
    48  H   12.367808   8.853617   8.655568   6.628448   6.321214
    49  H   11.135635   8.134158   8.122117   5.596015   5.947409
    50  H   11.203057   7.584600   7.350030   5.977247   5.227455
                   26         27         28         29         30
    26  O    0.000000
    27  C    7.121852   0.000000
    28  H    6.951280   1.101143   0.000000
    29  H    7.042800   1.104775   1.771431   0.000000
    30  N    9.087604   2.475729   3.398068   2.878236   0.000000
    31  C    8.590603   1.523466   2.145897   2.182405   1.453969
    32  H    9.232732   2.150910   2.513208   2.439788   2.135024
    33  H    8.862251   2.147178   2.389892   3.069336   2.073073
    34  C    9.163478   2.976207   4.008076   2.819522   1.451269
    35  H    8.213384   2.653323   3.714347   2.233291   2.110355
    36  H    9.742696   3.963766   5.026150   3.834237   2.094112
    37  H    9.800577   3.391457   4.280785   3.059380   2.136981
    38  C    2.691900   8.921548   8.914999   8.968656  10.494459
    39  H    2.332195   9.063237   8.928512   9.109068  10.831379
    40  H    3.676456   9.539815   9.543361   9.680187  10.993994
    41  C    3.322517   9.561418   9.657611   9.452702  11.051203
    42  H    2.857490   9.100287   9.191633   8.884308  10.679947
    43  H    4.026684   9.571510   9.786449   9.464966  10.841834
    44  C    4.420027  11.028433  11.074854  10.908419  12.568593
    45  H    5.081984  11.553454  11.604160  11.519463  13.011001
    46  H    4.222622  11.168820  11.110538  11.050392  12.877384
    47  C    5.458839  11.837078  11.962074  11.600896  13.292330
    48  H    6.323195  12.882371  12.973139  12.651144  14.374256
    49  H    5.233322  11.517000  11.638498  11.190228  13.034066
    50  H    5.953582  11.893723  12.114571  11.657663  13.167862
                   31         32         33         34         35
    31  C    0.000000
    32  H    1.110433   0.000000
    33  H    1.101015   1.780872   0.000000
    34  C    2.413250   2.694693   3.344323   0.000000
    35  H    2.705126   3.082598   3.710193   1.099550   0.000000
    36  H    3.360851   3.698246   4.156684   1.099176   1.773932
    37  H    2.707119   2.511810   3.683593   1.110733   1.790495
    38  C   10.258401  11.071347  10.443972  10.619379   9.712209
    39  H   10.452169  11.207826  10.610333  10.994763  10.081610
    40  H   10.807327  11.678122  10.913584  11.203840  10.348897
    41  C   10.916481  11.688484  11.233017  10.983826  10.012276
    42  H   10.501835  11.200707  10.899265  10.516532   9.501242
    43  H   10.852129  11.667709  11.191867  10.731458   9.780676
    44  C   12.403923  13.159822  12.705832  12.495764  11.514023
    45  H   12.882309  13.694669  13.114999  13.018751  12.077760
    46  H   12.590676  13.301690  12.868066  12.843256  11.853966
    47  C   13.209590  13.926515  13.610126  13.067246  12.049987
    48  H   14.267395  14.979020  14.651556  14.159782  13.140470
    49  H   12.918547  13.568577  13.386468  12.723615  11.674869
    50  H   13.205702  13.957500  13.626405  12.902877  11.904519
                   36         37         38         39         40
    36  H    0.000000
    37  H    1.788204   0.000000
    38  C   10.988495  11.429785   0.000000
    39  H   11.457191  11.745802   1.095963   0.000000
    40  H   11.524061  12.069564   1.096243   1.780377   0.000000
    41  C   11.282911  11.764349   1.523772   2.165765   2.166148
    42  H   10.860007  11.226303   2.151311   2.499550   3.068329
    43  H   10.927320  11.560817   2.152012   3.068434   2.502133
    44  C   12.796464  13.260395   2.528400   2.785312   2.784132
    45  H   13.282844  13.838012   2.749524   3.106854   2.549749
    46  H   13.227815  13.561495   2.749626   2.551317   3.104955
    47  C   13.306288  13.796921   3.891344   4.202397   4.201599
    48  H   14.405268  14.883238   4.704728   4.889203   4.888138
    49  H   12.995230  13.387069   4.216492   4.420933   4.764804
    50  H   13.052568  13.669964   4.216755   4.765677   4.420810
                   41         42         43         44         45
    41  C    0.000000
    42  H    1.102849   0.000000
    43  H    1.102885   1.775332   0.000000
    44  C    1.524742   2.163106   2.163037   0.000000
    45  H    2.154988   3.070904   2.509758   1.102941   0.000000
    46  H    2.154961   2.509310   3.070850   1.102920   1.764472
    47  C    2.536262   2.777426   2.776650   1.523257   2.161408
    48  H    3.496389   3.787899   3.787601   2.181636   2.508710
    49  H    2.802050   2.589860   3.139281   2.175680   3.084196
    50  H    2.802602   3.141218   2.589605   2.175739   2.525109
                   46         47         48         49         50
    46  H    0.000000
    47  C    2.161490   0.000000
    48  H    2.508342   1.099693   0.000000
    49  H    2.525579   1.100998   1.777951   0.000000
    50  H    3.084280   1.101007   1.778015   1.776826   0.000000
 Stoichiometry    C20H25N3O2
 Framework group  C1[X(C20H25N3O2)]
 Deg. of freedom   144
 Full point group                 C1      NOp   1
 Largest Abelian subgroup         C1      NOp   1
 Largest concise Abelian subgroup C1      NOp   1
                         Standard orientation:                         
 ---------------------------------------------------------------------
 Center     Atomic      Atomic             Coordinates (Angstroms)
 Number     Number       Type             X           Y           Z
 ---------------------------------------------------------------------
      1          6           0        7.177374    0.765446    0.409885
      2          1           0        7.277517    1.626558    1.086114
      3          1           0        7.244027    1.130480   -0.625110
      4          1           0        8.037806    0.087028    0.590375
      5          6           0        1.149733    0.572127   -0.330195
      6          6           0       -0.257634    0.381858   -0.406629
      7          6           0       -0.809616   -0.918042   -0.535917
      8          6           0       -1.114613    1.509472   -0.346494
      9          6           0        2.017815   -0.591923   -0.381010
     10          6           0        1.646068    1.891363   -0.210393
     11          1           0        2.720053    2.079637   -0.162810
     12          6           0        1.429926   -1.863715   -0.508998
     13          1           0        2.061138   -2.750025   -0.542634
     14          6           0       -2.584722    1.328735   -0.416721
     15          7           0       -3.057689    0.036059   -0.596104
     16          6           0        0.046453   -2.011079   -0.583830
     17          1           0       -0.383735   -3.009959   -0.679314
     18          6           0        0.792760    2.977612   -0.156050
     19          1           0        1.199718    3.984997   -0.064313
     20          7           0        3.352571   -0.444795   -0.315375
     21          1           0        3.756412    0.453906   -0.066743
     22          6           0       -0.597387    2.786045   -0.220493
     23          1           0       -1.281376    3.634869   -0.176311
     24          6           0       -2.257823   -1.114093   -0.614720
     25          8           0       -3.360061    2.265715   -0.329028
     26          8           0       -2.783142   -2.213657   -0.697727
     27          6           0        4.294466   -1.540981   -0.278511
     28          1           0        4.153410   -2.199421   -1.149761
     29          1           0        4.134867   -2.161962    0.621177
     30          7           0        5.901958    0.109953    0.626819
     31          6           0        5.709698   -0.978387   -0.317945
     32          1           0        6.424252   -1.810710   -0.145573
     33          1           0        5.905106   -0.583324   -1.326893
     34          6           0        5.766804   -0.325496    2.004607
     35          1           0        4.753640   -0.706454    2.197947
     36          1           0        5.935378    0.526025    2.678909
     37          1           0        6.493634   -1.122651    2.269163
     38          6           0       -4.509019   -0.148025   -0.668814
     39          1           0       -4.696055   -1.023636   -1.300841
     40          1           0       -4.927168    0.736334   -1.163597
     41          6           0       -5.139873   -0.338303    0.705121
     42          1           0       -4.680424   -1.215114    1.191315
     43          1           0       -4.908450    0.539983    1.330750
     44          6           0       -6.650445   -0.527747    0.620725
     45          1           0       -7.096923    0.346273    0.117511
     46          1           0       -6.870446   -1.398205   -0.019849
     47          6           0       -7.294508   -0.718893    1.987823
     48          1           0       -8.382754   -0.854364    1.906012
     49          1           0       -6.882838   -1.603847    2.497314
     50          1           0       -7.111779    0.152768    2.635151
 ---------------------------------------------------------------------
 Rotational constants (GHZ):           0.5455977           0.0883376           0.0811204
 Standard basis: def2SVP (5D, 7F)
 There are   500 symmetry adapted cartesian basis functions of A   symmetry.
 There are   475 symmetry adapted basis functions of A   symmetry.
   475 basis functions,   800 primitive gaussians,   500 cartesian basis functions
    91 alpha electrons       91 beta electrons
       nuclear repulsion energy      2130.0783397216 Hartrees.
 NAtoms=   50 NActive=   50 NUniq=   50 SFac= 1.00D+00 NAtFMM=   60 NAOKFM=F Big=F
 Integral buffers will be    131072 words long.
 Regular integral format.
 Two-electron integral symmetry is turned on.
 ------------------------------------------------------------------------------
 Polarizable Continuum Model (PCM)
 =================================
 Model                : PCM.
 Atomic radii         : SMD-Coulomb.
 Polarization charges : Total charges.
 Charge compensation  : None.
 Solution method      : On-the-fly selection.
 Cavity type          : VdW (van der Waals Surface) (Alpha=1.000).
 Cavity algorithm     : GePol (No added spheres)
                        Default sphere list used, NSphG=   50.
                        Lebedev-Laikov grids with approx.  5.0 points / Ang**2.
                        Smoothing algorithm: York/Karplus (Gamma=1.0000).
                        Polarization charges: spherical gaussians, with
                                              point-specific exponents (IZeta= 3).
                        Self-potential: point-specific (ISelfS= 7).
                        Self-field    : sphere-specific E.n sum rule (ISelfD= 2).
 1st derivatives      : Analytical E(r).r(x)/FMM algorithm (CHGder, D1EAlg=3).
                        Cavity 1st derivative terms included.
 Solvent              : Ethanol, Eps=  24.852000 Eps(inf)=   1.852593
 ------------------------------------------------------------------------------
 ------------------------------------------------------------------------------
 Atomic radii for non-electrostatic terms: SMD-CDS.
 ------------------------------------------------------------------------------
 Nuclear repulsion after PCM non-electrostatic terms =     2130.0753088872 Hartrees.
 One-electron integrals computed using PRISM.
   1 Symmetry operations used in ECPInt.
 ECPInt:  NShTT=   25425 NPrTT=   90925 LenC2=   20297 LenP2D=   49158.
 LDataN:  DoStor=T MaxTD1= 4 Len=   56
 NBasis=   475 RedAO= T EigKep=  2.11D-04  NBF=   475
 NBsUse=   475 1.00D-06 EigRej= -1.00D+00 NBFU=   475
 ExpMin= 1.22D-01 ExpMax= 2.27D+03 ExpMxC= 3.41D+02 IAcc=3 IRadAn=         5 AccDes= 0.00D+00
 Harris functional with IExCor= 1009 and IRadAn=       5 diagonalized for initial guess.
 HarFok:  IExCor= 1009 AccDes= 0.00D+00 IRadAn=         5 IDoV= 1 UseB2=F ITyADJ=14
 ICtDFT=  3500011 ScaDFX=  1.000000  1.000000  1.000000  1.000000
 FoFCou: FMM=F IPFlag=           0 FMFlag=      100000 FMFlg1=           0
         NFxFlg=           0 DoJE=T BraDBF=F KetDBF=T FulRan=T
         wScrn=  0.000000 ICntrl=       500 IOpCl=  0 I1Cent=   200000004 NGrid=           0
         NMat0=    1 NMatS0=      1 NMatT0=    0 NMatD0=    1 NMtDS0=    0 NMtDT0=    0
 Petite list used in FoFCou.
 Requested convergence on RMS density matrix=1.00D-08 within 128 cycles.
 Requested convergence on MAX density matrix=1.00D-06.
 Requested convergence on             energy=1.00D-06.
 No special actions if energy rises.
 Inv3:  Mode=1 IEnd=    36960300.
 Iteration    1 A*A^-1 deviation from unit magnitude is 6.22D-15 for   3498.
 Iteration    1 A*A^-1 deviation from orthogonality  is 2.66D-15 for   2882     41.
 Iteration    1 A^-1*A deviation from unit magnitude is 6.22D-15 for   3498.
 Iteration    1 A^-1*A deviation from orthogonality  is 8.33D-15 for   3237   3200.
 Error on total polarization charges =  0.06324
 SCF Done:  E(RM062X) =  -1090.70755753     A.U. after   14 cycles
            NFock= 14  Conv=0.40D-08     -V/T= 2.0106
 SMD-CDS (non-electrostatic) energy       (kcal/mol) =      -1.90
 (included in total energy above)
 DoSCS=F DFT=T ScalE2(SS,OS)=  1.000000  1.000000
 ExpMin= 1.22D-01 ExpMax= 2.27D+03 ExpMxC= 3.41D+02 IAcc=3 IRadAn=         5 AccDes= 0.00D+00
 HarFok:  IExCor=  205 AccDes= 0.00D+00 IRadAn=         5 IDoV=-2 UseB2=F ITyADJ=14
 ICtDFT= 12500011 ScaDFX=  1.000000  1.000000  1.000000  1.000000
 GSVD:  LWork=        -825 too small for GESVD, short by        3500 words or        3500 for optimal perf.
 Range of M.O.s used for correlation:    26   475
 NBasis=   475 NAE=    91 NBE=    91 NFC=    25 NFV=     0
 NROrb=    450 NOA=    66 NOB=    66 NVA=   384 NVB=   384

 **** Warning!!: The largest alpha MO coefficient is  0.12918973D+02

 NEqPCM:  Using non-equilibrium solvation (IEInf=1, Eps=  24.8520, EpsInf=   1.8526)
 Inv3:  Mode=1 IEnd=    36960300.
 Iteration    1 A*A^-1 deviation from unit magnitude is 5.33D-15 for   3469.
 Iteration    1 A*A^-1 deviation from orthogonality  is 2.78D-15 for   2943    167.
 Iteration    1 A^-1*A deviation from unit magnitude is 5.11D-15 for   3490.
 Iteration    1 A^-1*A deviation from orthogonality  is 2.35D-15 for   3486   2785.
 Orbital symmetries:
       Occupied  (A) (A) (A) (A) (A) (A) (A) (A) (A) (A) (A) (A)
                 (A) (A) (A) (A) (A) (A) (A) (A) (A) (A) (A) (A)
                 (A) (A) (A) (A) (A) (A) (A) (A) (A) (A) (A) (A)
                 (A) (A) (A) (A) (A) (A) (A) (A) (A) (A) (A) (A)
                 (A) (A) (A) (A) (A) (A) (A) (A) (A) (A) (A) (A)
                 (A) (A) (A) (A) (A) (A) (A) (A) (A) (A) (A) (A)
                 (A) (A) (A) (A) (A) (A) (A) (A) (A) (A) (A) (A)
                 (A) (A) (A) (A) (A) (A) (A)
       Virtual   (A) (A) (A) (A) (A) (A) (A) (A) (A) (A) (A) (A)
                 (A) (A) (A) (A) (A) (A) (A) (A) (A) (A) (A) (A)
                 (A) (A) (A) (A) (A) (A) (A) (A) (A) (A) (A) (A)
                 (A) (A) (A) (A) (A) (A) (A) (A) (A) (A) (A) (A)
                 (A) (A) (A) (A) (A) (A) (A) (A) (A) (A) (A) (A)
                 (A) (A) (A) (A) (A) (A) (A) (A) (A) (A) (A) (A)
                 (A) (A) (A) (A) (A) (A) (A) (A) (A) (A) (A) (A)
                 (A) (A) (A) (A) (A) (A) (A) (A) (A) (A) (A) (A)
                 (A) (A) (A) (A) (A) (A) (A) (A) (A) (A) (A) (A)
                 (A) (A) (A) (A) (A) (A) (A) (A) (A) (A) (A) (A)
                 (A) (A) (A) (A) (A) (A) (A) (A) (A) (A) (A) (A)
                 (A) (A) (A) (A) (A) (A) (A) (A) (A) (A) (A) (A)
                 (A) (A) (A) (A) (A) (A) (A) (A) (A) (A) (A) (A)
                 (A) (A) (A) (A) (A) (A) (A) (A) (A) (A) (A) (A)
                 (A) (A) (A) (A) (A) (A) (A) (A) (A) (A) (A) (A)
                 (A) (A) (A) (A) (A) (A) (A) (A) (A) (A) (A) (A)
                 (A) (A) (A) (A) (A) (A) (A) (A) (A) (A) (A) (A)
                 (A) (A) (A) (A) (A) (A) (A) (A) (A) (A) (A) (A)
                 (A) (A) (A) (A) (A) (A) (A) (A) (A) (A) (A) (A)
                 (A) (A) (A) (A) (A) (A) (A) (A) (A) (A) (A) (A)
                 (A) (A) (A) (A) (A) (A) (A) (A) (A) (A) (A) (A)
                 (A) (A) (A) (A) (A) (A) (A) (A) (A) (A) (A) (A)
                 (A) (A) (A) (A) (A) (A) (A) (A) (A) (A) (A) (A)
                 (A) (A) (A) (A) (A) (A) (A) (A) (A) (A) (A) (A)
                 (A) (A) (A) (A) (A) (A) (A) (A) (A) (A) (A) (A)
                 (A) (A) (A) (A) (A) (A) (A) (A) (A) (A) (A) (A)
                 (A) (A) (A) (A) (A) (A) (A) (A) (A) (A) (A) (A)
                 (A) (A) (A) (A) (A) (A) (A) (A) (A) (A) (A) (A)
                 (A) (A) (A) (A) (A) (A) (A) (A) (A) (A) (A) (A)
                 (A) (A) (A) (A) (A) (A) (A) (A) (A) (A) (A) (A)
                 (A) (A) (A) (A) (A) (A) (A) (A) (A) (A) (A) (A)
                 (A) (A) (A) (A) (A) (A) (A) (A) (A) (A) (A) (A)
    12 initial guesses have been made.
 Convergence on wavefunction:    0.000001000000000
 Iteration     1 Dimension    12 NMult     0 NNew     12
 CISAX will form    12 AO SS matrices at one time.
 New state      2 was old state      3
 New state      3 was old state      2
 Iteration     2 Dimension    18 NMult    12 NNew      6
 Iteration     3 Dimension    24 NMult    18 NNew      6
 Iteration     4 Dimension    30 NMult    24 NNew      6
 Iteration     5 Dimension    36 NMult    30 NNew      6
 Iteration     6 Dimension    42 NMult    36 NNew      6
 Iteration     7 Dimension    48 NMult    42 NNew      6
 Iteration     8 Dimension    54 NMult    48 NNew      6
 Iteration     9 Dimension    60 NMult    54 NNew      6
 Iteration    10 Dimension    66 NMult    60 NNew      6
 Iteration    11 Dimension    72 NMult    66 NNew      6
 Iteration    12 Dimension    76 NMult    72 NNew      4
 Iteration    13 Dimension    78 NMult    76 NNew      2
 Iteration    14 Dimension    80 NMult    78 NNew      2
 Iteration    15 Dimension    82 NMult    80 NNew      2
 Iteration    16 Dimension    84 NMult    82 NNew      2
 Iteration    17 Dimension    86 NMult    84 NNew      2
 Iteration    18 Dimension    88 NMult    86 NNew      2
 PCM Corrected Linear-Response:
 The state of interest is root number   1
 Excitation energy =    3.4017 eV, Total energy =  -1090.58254768    
 Recompute the excitation energies using the linear response reaction field.
 Convergence on wavefunction:    0.000001000000000
 Iteration     1 Dimension     3 NMult     0 NNew      3
 Iteration     2 Dimension     9 NMult     3 NNew      6
 Iteration     3 Dimension    15 NMult     9 NNew      6
 Iteration     4 Dimension    21 NMult    15 NNew      6
 Iteration     5 Dimension    27 NMult    21 NNew      6
 Iteration     6 Dimension    33 NMult    27 NNew      6
 Iteration     7 Dimension    39 NMult    33 NNew      6
 Iteration     8 Dimension    45 NMult    39 NNew      6
 Iteration     9 Dimension    51 NMult    45 NNew      6
 Iteration    10 Dimension    57 NMult    51 NNew      6
 Iteration    11 Dimension    63 NMult    57 NNew      6
 Iteration    12 Dimension    69 NMult    63 NNew      6
 Iteration    13 Dimension    71 NMult    69 NNew      2
 Iteration    14 Dimension    73 NMult    71 NNew      2
 Iteration    15 Dimension    75 NMult    73 NNew      2
 ***********************************************************************
 Excited states from <AA,BB:AA,BB> singles matrix:
 ***********************************************************************
 
 Ground to excited state transition densities written to RWF  633
 Ground to excited state transition electric dipole moments (Au):
       state          X           Y           Z        Dip. S.      Osc.
         1         2.3801     -0.3443      0.0914      5.7918      0.4715
         2        -0.0705      0.2906      0.0158      0.0897      0.0096
         3         0.0024      0.0120     -0.0432      0.0020      0.0002
 Ground to excited state transition velocity dipole moments (Au):
       state          X           Y           Z        Dip. S.      Osc.
         1        -0.3069      0.0565     -0.0112      0.0975      0.5322
         2         0.0135     -0.0532     -0.0024      0.0030      0.0126
         3        -0.0020     -0.0021      0.0110      0.0001      0.0005
 Ground to excited state transition magnetic dipole moments (Au):
       state          X           Y           Z
         1         0.0659      0.3259     -0.1537
         2        -0.0838     -0.1061      0.9923
         3         0.2380     -0.7417      0.0897
 Ground to excited state transition velocity quadrupole moments (Au):
       state          XX          YY          ZZ          XY          XZ          YZ
         1        -0.5915      0.1835     -0.0162      0.2211      0.1009     -0.0152
         2         0.1127      0.0886      0.0121     -0.3175     -0.0166      0.0404
         3         0.1335     -0.0363     -0.0140     -0.0140     -0.0057      0.0162
 <0|del|b> * <b|rxdel|0> + <0|del|b> * <b|delr+rdel|0>
 Rotatory Strengths (R) in cgs (10**-40 erg-esu-cm/Gauss)
       state          XX          YY          ZZ    R(velocity)    E-M Angle
         1        34.6016    -32.7741     -2.2709     -0.1478       90.00
         2         6.9127     -8.3044     10.7128      3.1070       87.80
         3         4.9032      1.2870      2.3163      2.8355       76.60
 1/2[<0|r|b>*<b|rxdel|0> + (<0|rxdel|b>*<b|r|0>)*]
 Rotatory Strengths (R) in cgs (10**-40 erg-esu-cm/Gauss)
       state          XX          YY          ZZ     R(length)
         1      -110.8372     79.3504      9.9322     -7.1849
         2        -4.1786     21.8018    -11.0970      2.1754
         3        -0.4077      6.2839      2.7417      2.8727
  1/2[<0|del|b>*<b|r|0> + (<0|r|b>*<b|del|0>)*] (Au)
       state          X           Y           Z        Dip. S.   Osc.(frdel)
         1        -0.7304     -0.0194     -0.0010      0.7508      0.5005
         2        -0.0010     -0.0155     -0.0000      0.0164      0.0110
         3        -0.0000     -0.0000     -0.0005      0.0005      0.0003

 Excitation energies and oscillator strengths:
 
 Excited State   1:      Singlet-A      3.3225 eV  373.16 nm  f=0.4715  <S**2>=0.000
      91 -> 92         0.70023
 This state for optimization and/or second-order correction.
 Total Energy, E(TD-HF/TD-DFT) =  -1090.58545702    
 Copying the excited state density for this state as the 1-particle RhoCI density.
 
 Excited State   2:      Singlet-A      4.3524 eV  284.86 nm  f=0.0096  <S**2>=0.000
      89 -> 92         0.42577
      91 -> 93         0.53938
 
 Excited State   3:      Singlet-A      4.6949 eV  264.09 nm  f=0.0002  <S**2>=0.000
      85 -> 92        -0.22404
      85 -> 94        -0.18770
      85 -> 95        -0.10859
      86 -> 92         0.55550
      86 -> 95         0.24204
 SavETr:  write IOETrn=   770 NScale= 10 NData=  16 NLR=1 NState=    3 LETran=      64.
 NEqPCM:  Using equilibrium solvation (IEInf=0, Eps=  24.8520, EpsInf=   1.8526)
          Differentiating once with respect to electric field.
                with respect to dipole field.
          Electric field/nuclear overlap derivatives assumed to be zero.
          There are     1 degrees of freedom in the 1st order CPHF.  IDoFFX=0 NUNeed=     1.
 LinEq1:  Iter=  0 NonCon=     1 RMS=2.67D-03 Max=1.89D-01 NDo=     1
 AX will form     1 AO Fock derivatives at one time.
 LinEq1:  Iter=  1 NonCon=     1 RMS=1.08D-03 Max=7.01D-02 NDo=     1
 LinEq1:  Iter=  2 NonCon=     1 RMS=4.22D-04 Max=2.24D-02 NDo=     1
 LinEq1:  Iter=  3 NonCon=     1 RMS=2.20D-04 Max=2.61D-02 NDo=     1
 LinEq1:  Iter=  4 NonCon=     1 RMS=1.05D-04 Max=5.88D-03 NDo=     1
 LinEq1:  Iter=  5 NonCon=     1 RMS=5.65D-05 Max=2.24D-03 NDo=     1
 LinEq1:  Iter=  6 NonCon=     1 RMS=3.20D-05 Max=1.80D-03 NDo=     1
 LinEq1:  Iter=  7 NonCon=     1 RMS=1.36D-05 Max=6.14D-04 NDo=     1
 LinEq1:  Iter=  8 NonCon=     1 RMS=5.88D-06 Max=2.23D-04 NDo=     1
 LinEq1:  Iter=  9 NonCon=     1 RMS=3.44D-06 Max=1.71D-04 NDo=     1
 LinEq1:  Iter= 10 NonCon=     1 RMS=1.54D-06 Max=1.08D-04 NDo=     1
 LinEq1:  Iter= 11 NonCon=     1 RMS=6.80D-07 Max=3.55D-05 NDo=     1
 LinEq1:  Iter= 12 NonCon=     1 RMS=3.15D-07 Max=1.23D-05 NDo=     1
 LinEq1:  Iter= 13 NonCon=     1 RMS=1.58D-07 Max=8.67D-06 NDo=     1
 LinEq1:  Iter= 14 NonCon=     1 RMS=6.85D-08 Max=3.88D-06 NDo=     1
 LinEq1:  Iter= 15 NonCon=     1 RMS=2.87D-08 Max=2.14D-06 NDo=     1
 LinEq1:  Iter= 16 NonCon=     1 RMS=1.45D-08 Max=8.45D-07 NDo=     1
 LinEq1:  Iter= 17 NonCon=     1 RMS=7.04D-09 Max=4.40D-07 NDo=     1
 LinEq1:  Iter= 18 NonCon=     1 RMS=2.59D-09 Max=1.36D-07 NDo=     1
 LinEq1:  Iter= 19 NonCon=     1 RMS=1.40D-09 Max=7.74D-08 NDo=     1
 LinEq1:  Iter= 20 NonCon=     1 RMS=4.77D-10 Max=2.40D-08 NDo=     1
 LinEq1:  Iter= 21 NonCon=     1 RMS=2.37D-10 Max=9.47D-09 NDo=     1
 LinEq1:  Iter= 22 NonCon=     1 RMS=7.77D-11 Max=3.71D-09 NDo=     1
 LinEq1:  Iter= 23 NonCon=     1 RMS=2.99D-11 Max=1.04D-09 NDo=     1
 LinEq1:  Iter= 24 NonCon=     0 RMS=1.27D-11 Max=6.71D-10 NDo=     1
 Linear equations converged to 1.000D-10 1.000D-09 after    24 iterations.
 PCM Corrected Linear-Response - Non-equilibrium solvation:
 Corrected transition energy               =    3.3394          eV
 Total energy after correction             = -1090.58483681     a.u.
 End of Minotr F.D. properties file   721 does not exist.
 End of Minotr F.D. properties file   722 does not exist.
 End of Minotr F.D. properties file   788 does not exist.

 **********************************************************************

            Population analysis using the CI Density.

 **********************************************************************

 Orbital symmetries:
       Occupied  (A) (A) (A) (A) (A) (A) (A) (A) (A) (A) (A) (A)
                 (A) (A) (A) (A) (A) (A) (A) (A) (A) (A) (A) (A)
                 (A) (A) (A) (A) (A) (A) (A) (A) (A) (A) (A) (A)
                 (A) (A) (A) (A) (A) (A) (A) (A) (A) (A) (A) (A)
                 (A) (A) (A) (A) (A) (A) (A) (A) (A) (A) (A) (A)
                 (A) (A) (A) (A) (A) (A) (A) (A) (A) (A) (A) (A)
                 (A) (A) (A) (A) (A) (A) (A) (A) (A) (A) (A) (A)
                 (A) (A) (A) (A) (A) (A) (A)
       Virtual   (A) (A) (A) (A) (A) (A) (A) (A) (A) (A) (A) (A)
                 (A) (A) (A) (A) (A) (A) (A) (A) (A) (A) (A) (A)
                 (A) (A) (A) (A) (A) (A) (A) (A) (A) (A) (A) (A)
                 (A) (A) (A) (A) (A) (A) (A) (A) (A) (A) (A) (A)
                 (A) (A) (A) (A) (A) (A) (A) (A) (A) (A) (A) (A)
                 (A) (A) (A) (A) (A) (A) (A) (A) (A) (A) (A) (A)
                 (A) (A) (A) (A) (A) (A) (A) (A) (A) (A) (A) (A)
                 (A) (A) (A) (A) (A) (A) (A) (A) (A) (A) (A) (A)
                 (A) (A) (A) (A) (A) (A) (A) (A) (A) (A) (A) (A)
                 (A) (A) (A) (A) (A) (A) (A) (A) (A) (A) (A) (A)
                 (A) (A) (A) (A) (A) (A) (A) (A) (A) (A) (A) (A)
                 (A) (A) (A) (A) (A) (A) (A) (A) (A) (A) (A) (A)
                 (A) (A) (A) (A) (A) (A) (A) (A) (A) (A) (A) (A)
                 (A) (A) (A) (A) (A) (A) (A) (A) (A) (A) (A) (A)
                 (A) (A) (A) (A) (A) (A) (A) (A) (A) (A) (A) (A)
                 (A) (A) (A) (A) (A) (A) (A) (A) (A) (A) (A) (A)
                 (A) (A) (A) (A) (A) (A) (A) (A) (A) (A) (A) (A)
                 (A) (A) (A) (A) (A) (A) (A) (A) (A) (A) (A) (A)
                 (A) (A) (A) (A) (A) (A) (A) (A) (A) (A) (A) (A)
                 (A) (A) (A) (A) (A) (A) (A) (A) (A) (A) (A) (A)
                 (A) (A) (A) (A) (A) (A) (A) (A) (A) (A) (A) (A)
                 (A) (A) (A) (A) (A) (A) (A) (A) (A) (A) (A) (A)
                 (A) (A) (A) (A) (A) (A) (A) (A) (A) (A) (A) (A)
                 (A) (A) (A) (A) (A) (A) (A) (A) (A) (A) (A) (A)
                 (A) (A) (A) (A) (A) (A) (A) (A) (A) (A) (A) (A)
                 (A) (A) (A) (A) (A) (A) (A) (A) (A) (A) (A) (A)
                 (A) (A) (A) (A) (A) (A) (A) (A) (A) (A) (A) (A)
                 (A) (A) (A) (A) (A) (A) (A) (A) (A) (A) (A) (A)
                 (A) (A) (A) (A) (A) (A) (A) (A) (A) (A) (A) (A)
                 (A) (A) (A) (A) (A) (A) (A) (A) (A) (A) (A) (A)
                 (A) (A) (A) (A) (A) (A) (A) (A) (A) (A) (A) (A)
                 (A) (A) (A) (A) (A) (A) (A) (A) (A) (A) (A) (A)
 The electronic state is 1-A.
 Alpha  occ. eigenvalues --  -19.62039 -19.61533 -14.80763 -14.78379 -14.75090
 Alpha  occ. eigenvalues --  -10.67715 -10.67301 -10.62153 -10.58425 -10.58257
 Alpha  occ. eigenvalues --  -10.57916 -10.57784 -10.57633 -10.57444 -10.57443
 Alpha  occ. eigenvalues --  -10.57368 -10.57327 -10.56414 -10.56413 -10.56411
 Alpha  occ. eigenvalues --  -10.55743 -10.55312 -10.54104 -10.53978 -10.53369
 Alpha  occ. eigenvalues --   -1.17614  -1.15521  -1.05935  -1.03986  -1.01978
 Alpha  occ. eigenvalues --   -0.98105  -0.92590  -0.89677  -0.87504  -0.84576
 Alpha  occ. eigenvalues --   -0.84049  -0.81808  -0.80374  -0.78384  -0.75217
 Alpha  occ. eigenvalues --   -0.74231  -0.73246  -0.70968  -0.69847  -0.68561
 Alpha  occ. eigenvalues --   -0.65138  -0.65062  -0.64260  -0.61218  -0.59106
 Alpha  occ. eigenvalues --   -0.58405  -0.57001  -0.55913  -0.55485  -0.54781
 Alpha  occ. eigenvalues --   -0.54394  -0.53715  -0.52780  -0.51880  -0.51468
 Alpha  occ. eigenvalues --   -0.51396  -0.50812  -0.50092  -0.48964  -0.48625
 Alpha  occ. eigenvalues --   -0.47979  -0.47034  -0.46803  -0.46236  -0.46071
 Alpha  occ. eigenvalues --   -0.45042  -0.44421  -0.44121  -0.42780  -0.42534
 Alpha  occ. eigenvalues --   -0.41928  -0.40852  -0.40694  -0.40452  -0.40053
 Alpha  occ. eigenvalues --   -0.39774  -0.38951  -0.37740  -0.37461  -0.35673
 Alpha  occ. eigenvalues --   -0.34500  -0.33248  -0.31736  -0.31310  -0.28183
 Alpha  occ. eigenvalues --   -0.24689
 Alpha virt. eigenvalues --   -0.05099   0.00722   0.01787   0.05571   0.09529
 Alpha virt. eigenvalues --    0.10791   0.11490   0.12514   0.13529   0.13678
 Alpha virt. eigenvalues --    0.13981   0.14216   0.14631   0.14886   0.15073
 Alpha virt. eigenvalues --    0.15241   0.16205   0.16850   0.17547   0.18353
 Alpha virt. eigenvalues --    0.18666   0.18890   0.19429   0.19595   0.19830
 Alpha virt. eigenvalues --    0.20850   0.20998   0.21342   0.21748   0.22291
 Alpha virt. eigenvalues --    0.22884   0.23434   0.24139   0.24495   0.24855
 Alpha virt. eigenvalues --    0.27195   0.27339   0.27760   0.28617   0.28894
 Alpha virt. eigenvalues --    0.29516   0.29749   0.29836   0.30127   0.30368
 Alpha virt. eigenvalues --    0.30802   0.31814   0.32101   0.33423   0.33777
 Alpha virt. eigenvalues --    0.34934   0.35782   0.37552   0.38498   0.39578
 Alpha virt. eigenvalues --    0.40575   0.41460   0.43746   0.45612   0.45947
 Alpha virt. eigenvalues --    0.46497   0.47168   0.47357   0.47785   0.48736
 Alpha virt. eigenvalues --    0.49114   0.49448   0.49703   0.49968   0.50590
 Alpha virt. eigenvalues --    0.50716   0.50933   0.51404   0.52250   0.52607
 Alpha virt. eigenvalues --    0.53725   0.54360   0.54491   0.55518   0.56258
 Alpha virt. eigenvalues --    0.58265   0.58811   0.59824   0.60437   0.61366
 Alpha virt. eigenvalues --    0.62226   0.62941   0.64329   0.65259   0.65854
 Alpha virt. eigenvalues --    0.66807   0.67065   0.67858   0.68626   0.69251
 Alpha virt. eigenvalues --    0.69300   0.69650   0.70080   0.70156   0.70617
 Alpha virt. eigenvalues --    0.70774   0.71237   0.71468   0.71883   0.72004
 Alpha virt. eigenvalues --    0.72055   0.72302   0.72801   0.73037   0.73812
 Alpha virt. eigenvalues --    0.73913   0.73993   0.74221   0.74305   0.74531
 Alpha virt. eigenvalues --    0.74998   0.75578   0.75792   0.75877   0.76282
 Alpha virt. eigenvalues --    0.76505   0.76973   0.77506   0.77606   0.78405
 Alpha virt. eigenvalues --    0.78595   0.78683   0.79065   0.79421   0.80088
 Alpha virt. eigenvalues --    0.80512   0.81179   0.81582   0.84143   0.84504
 Alpha virt. eigenvalues --    0.84861   0.86720   0.87257   0.87648   0.88788
 Alpha virt. eigenvalues --    0.89364   0.90405   0.90778   0.94283   0.94530
 Alpha virt. eigenvalues --    0.95672   0.95887   0.97266   1.01012   1.01286
 Alpha virt. eigenvalues --    1.03372   1.04560   1.06376   1.06807   1.07307
 Alpha virt. eigenvalues --    1.07717   1.07919   1.11069   1.11897   1.13646
 Alpha virt. eigenvalues --    1.14821   1.15410   1.16201   1.16900   1.18489
 Alpha virt. eigenvalues --    1.20260   1.21007   1.22606   1.23305   1.24587
 Alpha virt. eigenvalues --    1.24992   1.25550   1.26050   1.26660   1.27812
 Alpha virt. eigenvalues --    1.28992   1.29390   1.30560   1.30778   1.31110
 Alpha virt. eigenvalues --    1.32659   1.34005   1.36368   1.36956   1.37332
 Alpha virt. eigenvalues --    1.37578   1.37897   1.38628   1.39975   1.42473
 Alpha virt. eigenvalues --    1.42817   1.43643   1.44784   1.45589   1.47644
 Alpha virt. eigenvalues --    1.48087   1.51155   1.53234   1.53579   1.54845
 Alpha virt. eigenvalues --    1.55466   1.55729   1.56861   1.57735   1.58234
 Alpha virt. eigenvalues --    1.58931   1.59642   1.59945   1.62410   1.64226
 Alpha virt. eigenvalues --    1.66309   1.70501   1.70971   1.72059   1.72272
 Alpha virt. eigenvalues --    1.74319   1.74555   1.74822   1.75029   1.77000
 Alpha virt. eigenvalues --    1.77326   1.78166   1.78312   1.78916   1.79396
 Alpha virt. eigenvalues --    1.79933   1.80576   1.81007   1.81529   1.82100
 Alpha virt. eigenvalues --    1.82239   1.82280   1.82747   1.82962   1.83845
 Alpha virt. eigenvalues --    1.84484   1.84899   1.85197   1.85787   1.86189
 Alpha virt. eigenvalues --    1.86900   1.87543   1.89122   1.89182   1.89761
 Alpha virt. eigenvalues --    1.90474   1.90696   1.91488   1.91756   1.92376
 Alpha virt. eigenvalues --    1.93302   1.93752   1.94069   1.95187   1.95651
 Alpha virt. eigenvalues --    1.96729   1.96868   1.97364   1.97607   1.98213
 Alpha virt. eigenvalues --    1.98620   1.98917   1.99864   2.00849   2.01301
 Alpha virt. eigenvalues --    2.01536   2.02631   2.04294   2.05391   2.05884
 Alpha virt. eigenvalues --    2.06323   2.07963   2.08530   2.09313   2.10894
 Alpha virt. eigenvalues --    2.11938   2.12559   2.13090   2.13542   2.15031
 Alpha virt. eigenvalues --    2.16405   2.17233   2.17642   2.19252   2.20897
 Alpha virt. eigenvalues --    2.22364   2.23668   2.24998   2.26058   2.26417
 Alpha virt. eigenvalues --    2.26900   2.27183   2.29100   2.29365   2.31068
 Alpha virt. eigenvalues --    2.31328   2.33021   2.33238   2.33917   2.35261
 Alpha virt. eigenvalues --    2.35605   2.38168   2.39156   2.39781   2.40292
 Alpha virt. eigenvalues --    2.42780   2.43726   2.44602   2.45077   2.46378
 Alpha virt. eigenvalues --    2.47503   2.47653   2.49183   2.50444   2.51843
 Alpha virt. eigenvalues --    2.52419   2.53299   2.53888   2.55643   2.56605
 Alpha virt. eigenvalues --    2.58140   2.60196   2.60833   2.61722   2.62586
 Alpha virt. eigenvalues --    2.63408   2.64701   2.65415   2.65993   2.66463
 Alpha virt. eigenvalues --    2.68093   2.69039   2.71172   2.71924   2.73143
 Alpha virt. eigenvalues --    2.74401   2.76033   2.76494   2.77473   2.78016
 Alpha virt. eigenvalues --    2.78353   2.79318   2.81525   2.84396   2.85994
 Alpha virt. eigenvalues --    2.86545   2.87058   2.87638   2.89128   2.89595
 Alpha virt. eigenvalues --    2.90395   2.90585   2.91215   2.92336   2.92493
 Alpha virt. eigenvalues --    2.94460   2.95817   2.96570   2.99232   3.01327
 Alpha virt. eigenvalues --    3.02337   3.02848   3.04067   3.04324   3.07286
 Alpha virt. eigenvalues --    3.10069   3.10626   3.11006   3.12802   3.13769
 Alpha virt. eigenvalues --    3.15508   3.17515   3.18694   3.20621   3.22350
 Alpha virt. eigenvalues --    3.24785   3.37114   3.42824   3.47009   3.53910
 Alpha virt. eigenvalues --    3.56930   3.66930   3.71651   3.74096
          Condensed to atoms (all electrons):
               1          2          3          4          5          6
     1  C    4.514582   0.402828   0.401603   0.393069  -0.000000  -0.000000
     2  H    0.402828   0.611118  -0.017818  -0.032669  -0.000002  -0.000000
     3  H    0.401603  -0.017818   0.609499  -0.031036  -0.000005  -0.000000
     4  H    0.393069  -0.032669  -0.031036   0.680034   0.000001   0.000000
     5  C   -0.000000  -0.000002  -0.000005   0.000001   5.574134   0.278275
     6  C   -0.000000  -0.000000  -0.000000   0.000000   0.278275   5.349382
     7  C    0.000000   0.000000   0.000000  -0.000000  -0.005069   0.246652
     8  C   -0.000000   0.000000   0.000000  -0.000000  -0.003756   0.279215
     9  C    0.000037   0.000001   0.000008  -0.000005   0.153672   0.020170
    10  C   -0.000000   0.000004   0.000007  -0.000002   0.247419   0.022721
    11  H    0.000051   0.000007   0.000018  -0.000001  -0.067760   0.014563
    12  C    0.000001   0.000000   0.000001  -0.000000   0.007775  -0.120756
    13  H    0.000001   0.000000   0.000000  -0.000000   0.014897  -0.001950
    14  C    0.000000   0.000000   0.000000  -0.000000   0.015793  -0.066382
    15  N    0.000000  -0.000000  -0.000000   0.000000  -0.001571  -0.017757
    16  C   -0.000000  -0.000000  -0.000000   0.000000  -0.125288   0.033293
    17  H   -0.000000   0.000000   0.000000  -0.000000  -0.001272   0.013505
    18  C    0.000000   0.000001   0.000001  -0.000000   0.096205  -0.138348
    19  H   -0.000000  -0.000000  -0.000000   0.000000   0.015743  -0.000941
    20  N   -0.000027   0.000033   0.000106  -0.000043  -0.116113   0.003841
    21  H   -0.001654  -0.000458  -0.000963   0.000719  -0.027991   0.000850
    22  C    0.000000  -0.000000  -0.000000   0.000000  -0.142578   0.035301
    23  H   -0.000000  -0.000000  -0.000000   0.000000  -0.000923   0.014919
    24  C   -0.000000   0.000000   0.000000  -0.000000   0.011745  -0.066539
    25  O   -0.000000   0.000000   0.000000   0.000000  -0.000070   0.000857
    26  O    0.000000   0.000000  -0.000000  -0.000000  -0.000076   0.000414
    27  C    0.011206  -0.000439   0.000879  -0.000697   0.008989  -0.000190
    28  H   -0.000184   0.000011  -0.000050   0.000024  -0.000783   0.000015
    29  H   -0.000235   0.000014  -0.000001  -0.000030  -0.000306   0.000014
    30  N    0.348709  -0.027746  -0.027402  -0.040263   0.000550   0.000006
    31  C   -0.054670   0.007585  -0.003367  -0.008951   0.000251   0.000003
    32  H   -0.002970  -0.000510  -0.002388   0.012776   0.000030   0.000001
    33  H   -0.005860   0.000474   0.006302  -0.003394  -0.000064  -0.000002
    34  C   -0.048294  -0.003814   0.007396  -0.006490  -0.000042  -0.000002
    35  H    0.006453   0.000531  -0.000391  -0.000687  -0.000272  -0.000016
    36  H   -0.004781   0.004769   0.000443  -0.002875  -0.000011  -0.000000
    37  H   -0.002938  -0.002648  -0.000442   0.013578   0.000009   0.000000
    38  C   -0.000000   0.000000   0.000000  -0.000000   0.000099  -0.000055
    39  H   -0.000000  -0.000000  -0.000000   0.000000   0.000002  -0.000176
    40  H    0.000000   0.000000   0.000000  -0.000000   0.000003  -0.000191
    41  C    0.000000  -0.000000  -0.000000   0.000000  -0.000005   0.000192
    42  H    0.000000   0.000000   0.000000  -0.000000   0.000002  -0.000020
    43  H   -0.000000  -0.000000  -0.000000   0.000000   0.000003  -0.000020
    44  C   -0.000000   0.000000  -0.000000   0.000000   0.000000   0.000001
    45  H   -0.000000  -0.000000  -0.000000   0.000000  -0.000000   0.000000
    46  H    0.000000   0.000000   0.000000   0.000000  -0.000000  -0.000000
    47  C    0.000000   0.000000   0.000000   0.000000  -0.000000   0.000000
    48  H    0.000000   0.000000   0.000000   0.000000  -0.000000  -0.000000
    49  H    0.000000  -0.000000   0.000000   0.000000   0.000000   0.000000
    50  H    0.000000   0.000000   0.000000   0.000000  -0.000000   0.000000
               7          8          9         10         11         12
     1  C    0.000000  -0.000000   0.000037  -0.000000   0.000051   0.000001
     2  H    0.000000   0.000000   0.000001   0.000004   0.000007   0.000000
     3  H    0.000000   0.000000   0.000008   0.000007   0.000018   0.000001
     4  H   -0.000000  -0.000000  -0.000005  -0.000002  -0.000001  -0.000000
     5  C   -0.005069  -0.003756   0.153672   0.247419  -0.067760   0.007775
     6  C    0.246652   0.279215   0.020170   0.022721   0.014563  -0.120756
     7  C    5.962044  -0.075587  -0.172956   0.023703  -0.000120   0.102249
     8  C   -0.075587   5.878052   0.028048  -0.150556  -0.001409  -0.003391
     9  C   -0.172956   0.028048   5.403551  -0.149108  -0.024345   0.134991
    10  C    0.023703  -0.150556  -0.149108   5.422917   0.460079   0.018145
    11  H   -0.000120  -0.001409  -0.024345   0.460079   0.637967  -0.000071
    12  C    0.102249  -0.003391   0.134991   0.018145  -0.000071   5.344087
    13  H    0.016474   0.000021  -0.076219  -0.000077   0.000012   0.474905
    14  C   -0.043415   0.236603   0.000250  -0.002501   0.000035  -0.000358
    15  N   -0.124890  -0.129102  -0.000044  -0.000033  -0.000000   0.000049
    16  C    0.131829   0.016367   0.131560  -0.002926  -0.000085   0.207222
    17  H   -0.092449  -0.000518   0.015247   0.000026   0.000000  -0.062552
    18  C   -0.003145   0.093325   0.019928   0.220359  -0.057008  -0.000432
    19  H    0.000058   0.014873  -0.000414  -0.071227  -0.012734   0.000004
    20  N   -0.000925   0.000029   0.488343  -0.000114  -0.002760  -0.097724
    21  H   -0.000171  -0.000000  -0.003738   0.004691   0.002846   0.009045
    22  C    0.016472   0.193452  -0.002939   0.090300   0.014127   0.000188
    23  H   -0.000556  -0.088069   0.000054   0.014257  -0.000250   0.000000
    24  C    0.184719  -0.039954  -0.001466   0.000177   0.000001   0.021537
    25  O    0.000278  -0.151363   0.000001  -0.000065   0.000000  -0.000000
    26  O   -0.148265   0.000263  -0.000039   0.000001  -0.000000   0.001936
    27  C    0.000080   0.000005  -0.049342   0.000725   0.000211   0.001614
    28  H   -0.000034  -0.000000  -0.015848  -0.000057  -0.000069   0.007334
    29  H   -0.000038  -0.000001  -0.005564  -0.000039   0.000042   0.001917
    30  N   -0.000000  -0.000000  -0.001518  -0.000822   0.000285  -0.000094
    31  C    0.000005  -0.000000   0.010316  -0.000095   0.000289   0.000662
    32  H   -0.000000   0.000000  -0.000386  -0.000012  -0.000003  -0.000025
    33  H   -0.000000   0.000000   0.000196   0.000051   0.000020  -0.000095
    34  C   -0.000000   0.000000  -0.000139   0.000041  -0.000027  -0.000027
    35  H    0.000001   0.000000   0.000264   0.000201  -0.000087   0.000041
    36  H    0.000000  -0.000000   0.000024   0.000016   0.000025   0.000003
    37  H   -0.000000  -0.000000  -0.000052  -0.000007   0.000001  -0.000008
    38  C    0.009335   0.009779  -0.000001   0.000000   0.000000   0.000001
    39  H    0.003794  -0.000351   0.000000  -0.000000   0.000000  -0.000003
    40  H   -0.000392   0.003688  -0.000000   0.000001  -0.000000   0.000000
    41  C   -0.001355  -0.001323  -0.000000  -0.000000  -0.000000   0.000000
    42  H   -0.000095   0.000087   0.000000  -0.000000   0.000000  -0.000001
    43  H    0.000089  -0.000089  -0.000000   0.000000   0.000000  -0.000000
    44  C   -0.000002  -0.000005   0.000000   0.000000   0.000000   0.000000
    45  H    0.000000  -0.000003   0.000000  -0.000000  -0.000000  -0.000000
    46  H   -0.000003   0.000000  -0.000000   0.000000  -0.000000   0.000000
    47  C   -0.000000  -0.000000  -0.000000  -0.000000  -0.000000  -0.000000
    48  H    0.000000   0.000000   0.000000   0.000000   0.000000   0.000000
    49  H   -0.000000  -0.000000  -0.000000  -0.000000  -0.000000   0.000000
    50  H   -0.000000  -0.000000  -0.000000  -0.000000  -0.000000   0.000000
              13         14         15         16         17         18
     1  C    0.000001   0.000000   0.000000  -0.000000  -0.000000   0.000000
     2  H    0.000000   0.000000  -0.000000  -0.000000   0.000000   0.000001
     3  H    0.000000   0.000000  -0.000000  -0.000000   0.000000   0.000001
     4  H   -0.000000  -0.000000   0.000000   0.000000  -0.000000  -0.000000
     5  C    0.014897   0.015793  -0.001571  -0.125288  -0.001272   0.096205
     6  C   -0.001950  -0.066382  -0.017757   0.033293   0.013505  -0.138348
     7  C    0.016474  -0.043415  -0.124890   0.131829  -0.092449  -0.003145
     8  C    0.000021   0.236603  -0.129102   0.016367  -0.000518   0.093325
     9  C   -0.076219   0.000250  -0.000044   0.131560   0.015247   0.019928
    10  C   -0.000077  -0.002501  -0.000033  -0.002926   0.000026   0.220359
    11  H    0.000012   0.000035  -0.000000  -0.000085   0.000000  -0.057008
    12  C    0.474905  -0.000358   0.000049   0.207222  -0.062552  -0.000432
    13  H    0.602311   0.000001   0.000000  -0.071009  -0.011561   0.000000
    14  C    0.000001   4.732743   0.296239   0.001341   0.000069   0.021161
    15  N    0.000000   0.296239   7.086719   0.011332   0.001107   0.000002
    16  C   -0.071009   0.001341   0.011332   5.310661   0.473336   0.000179
    17  H   -0.011561   0.000069   0.001107   0.473336   0.620302   0.000001
    18  C    0.000000   0.021161   0.000002   0.000179   0.000001   5.146050
    19  H   -0.000000  -0.000415   0.000001  -0.000000   0.000000   0.461751
    20  N   -0.016633   0.000001  -0.000000   0.008369  -0.000087   0.000940
    21  H   -0.000141   0.000000  -0.000000   0.000161   0.000004  -0.001282
    22  C    0.000001  -0.083218   0.010882  -0.000580   0.000002   0.233634
    23  H    0.000000  -0.014935   0.001183   0.000002  -0.000000  -0.070547
    24  C   -0.000347  -0.043242   0.323636  -0.081224  -0.013246  -0.000317
    25  O   -0.000000   0.748423  -0.113980   0.000010   0.000000   0.001795
    26  O   -0.000020  -0.000821  -0.116212   0.021577   0.013820  -0.000000
    27  C    0.009211  -0.000000   0.000000   0.000308  -0.000028   0.000014
    28  H   -0.000976  -0.000000   0.000000   0.001021   0.000014   0.000001
    29  H   -0.001289   0.000000   0.000000   0.000144   0.000018   0.000004
    30  N   -0.000009  -0.000000   0.000000   0.000001  -0.000000  -0.000022
    31  C    0.000664   0.000000   0.000000  -0.000058  -0.000000   0.000001
    32  H   -0.000007  -0.000000   0.000000   0.000001  -0.000000  -0.000000
    33  H   -0.000007   0.000000  -0.000000  -0.000000   0.000000   0.000002
    34  C   -0.000012   0.000000  -0.000000   0.000001   0.000000   0.000001
    35  H    0.000005   0.000000  -0.000000   0.000003  -0.000000   0.000005
    36  H    0.000000   0.000000  -0.000000  -0.000000  -0.000000   0.000001
    37  H   -0.000003  -0.000000   0.000000   0.000000  -0.000000  -0.000000
    38  C   -0.000000  -0.022744   0.218351  -0.000465  -0.000049   0.000001
    39  H   -0.000000   0.006106  -0.023577   0.000017  -0.000007   0.000000
    40  H    0.000000  -0.009296  -0.024096   0.000006  -0.000001  -0.000003
    41  C    0.000000  -0.004859  -0.031613   0.000028   0.000007   0.000000
    42  H    0.000000  -0.001137  -0.010048  -0.000012  -0.000013  -0.000000
    43  H    0.000000   0.006917  -0.010046  -0.000004   0.000000  -0.000000
    44  C   -0.000000  -0.000112   0.005231  -0.000000   0.000000   0.000000
    45  H    0.000000  -0.000114   0.000102   0.000000   0.000000   0.000000
    46  H    0.000000   0.000065   0.000099   0.000000  -0.000000   0.000000
    47  C    0.000000  -0.000014  -0.000175   0.000000   0.000000  -0.000000
    48  H   -0.000000   0.000000   0.000004   0.000000   0.000000   0.000000
    49  H   -0.000000  -0.000001   0.000001  -0.000000   0.000000   0.000000
    50  H    0.000000  -0.000002   0.000001  -0.000000  -0.000000   0.000000
              19         20         21         22         23         24
     1  C   -0.000000  -0.000027  -0.001654   0.000000  -0.000000  -0.000000
     2  H   -0.000000   0.000033  -0.000458  -0.000000  -0.000000   0.000000
     3  H   -0.000000   0.000106  -0.000963  -0.000000  -0.000000   0.000000
     4  H    0.000000  -0.000043   0.000719   0.000000   0.000000  -0.000000
     5  C    0.015743  -0.116113  -0.027991  -0.142578  -0.000923   0.011745
     6  C   -0.000941   0.003841   0.000850   0.035301   0.014919  -0.066539
     7  C    0.000058  -0.000925  -0.000171   0.016472  -0.000556   0.184719
     8  C    0.014873   0.000029  -0.000000   0.193452  -0.088069  -0.039954
     9  C   -0.000414   0.488343  -0.003738  -0.002939   0.000054  -0.001466
    10  C   -0.071227  -0.000114   0.004691   0.090300   0.014257   0.000177
    11  H   -0.012734  -0.002760   0.002846   0.014127  -0.000250   0.000001
    12  C    0.000004  -0.097724   0.009045   0.000188   0.000000   0.021537
    13  H   -0.000000  -0.016633  -0.000141   0.000001   0.000000  -0.000347
    14  C   -0.000415   0.000001   0.000000  -0.083218  -0.014935  -0.043242
    15  N    0.000001  -0.000000  -0.000000   0.010882   0.001183   0.323636
    16  C   -0.000000   0.008369   0.000161  -0.000580   0.000002  -0.081224
    17  H    0.000000  -0.000087   0.000004   0.000002  -0.000000  -0.013246
    18  C    0.461751   0.000940  -0.001282   0.233634  -0.070547  -0.000317
    19  H    0.637308   0.000003   0.000040  -0.076644  -0.010350   0.000001
    20  N    0.000003   6.335949   0.349820  -0.000067   0.000000   0.000015
    21  H    0.000040   0.349820   0.495695   0.000040   0.000000  -0.000000
    22  C   -0.076644  -0.000067   0.000040   5.319169   0.469338   0.001505
    23  H   -0.010350   0.000000   0.000000   0.469338   0.645664   0.000073
    24  C    0.000001   0.000015  -0.000000   0.001505   0.000073   4.719711
    25  O   -0.000012  -0.000000  -0.000000   0.019655   0.015070  -0.000720
    26  O    0.000000  -0.000000  -0.000000   0.000009   0.000000   0.754937
    27  C   -0.000000   0.306894  -0.056224   0.000001   0.000000   0.000000
    28  H    0.000000  -0.014829   0.005491  -0.000000   0.000000   0.000001
    29  H   -0.000000  -0.034932   0.000445  -0.000000  -0.000000  -0.000000
    30  N   -0.000000  -0.013805   0.057756   0.000000   0.000000  -0.000000
    31  C   -0.000000  -0.045198  -0.018382   0.000000  -0.000000  -0.000000
    32  H    0.000000   0.004777   0.003342   0.000000   0.000000  -0.000000
    33  H   -0.000000  -0.001993  -0.002629  -0.000000  -0.000000  -0.000000
    34  C   -0.000000  -0.002938  -0.001925  -0.000000   0.000000  -0.000000
    35  H    0.000000   0.002390  -0.002847  -0.000000  -0.000000   0.000000
    36  H   -0.000000   0.000101  -0.000998  -0.000000  -0.000000   0.000000
    37  H    0.000000   0.000230   0.001496   0.000000   0.000000  -0.000000
    38  C   -0.000000   0.000000   0.000000  -0.000461  -0.000058  -0.024150
    39  H    0.000000   0.000000  -0.000000   0.000007  -0.000001  -0.010149
    40  H   -0.000000  -0.000000   0.000000   0.000013  -0.000009   0.005944
    41  C    0.000000   0.000000  -0.000000   0.000026   0.000008  -0.004998
    42  H   -0.000000   0.000000   0.000000  -0.000003   0.000000   0.007051
    43  H   -0.000000  -0.000000  -0.000000  -0.000009  -0.000014  -0.001109
    44  C   -0.000000  -0.000000  -0.000000  -0.000000   0.000000  -0.000054
    45  H    0.000000   0.000000  -0.000000   0.000000  -0.000000   0.000063
    46  H    0.000000  -0.000000   0.000000   0.000000   0.000000  -0.000109
    47  C    0.000000  -0.000000   0.000000   0.000000   0.000000  -0.000016
    48  H   -0.000000   0.000000   0.000000   0.000000   0.000000   0.000000
    49  H   -0.000000  -0.000000  -0.000000  -0.000000  -0.000000  -0.000002
    50  H    0.000000   0.000000   0.000000  -0.000000   0.000000  -0.000001
              25         26         27         28         29         30
     1  C   -0.000000   0.000000   0.011206  -0.000184  -0.000235   0.348709
     2  H    0.000000   0.000000  -0.000439   0.000011   0.000014  -0.027746
     3  H    0.000000  -0.000000   0.000879  -0.000050  -0.000001  -0.027402
     4  H    0.000000  -0.000000  -0.000697   0.000024  -0.000030  -0.040263
     5  C   -0.000070  -0.000076   0.008989  -0.000783  -0.000306   0.000550
     6  C    0.000857   0.000414  -0.000190   0.000015   0.000014   0.000006
     7  C    0.000278  -0.148265   0.000080  -0.000034  -0.000038  -0.000000
     8  C   -0.151363   0.000263   0.000005  -0.000000  -0.000001  -0.000000
     9  C    0.000001  -0.000039  -0.049342  -0.015848  -0.005564  -0.001518
    10  C   -0.000065   0.000001   0.000725  -0.000057  -0.000039  -0.000822
    11  H    0.000000  -0.000000   0.000211  -0.000069   0.000042   0.000285
    12  C   -0.000000   0.001936   0.001614   0.007334   0.001917  -0.000094
    13  H   -0.000000  -0.000020   0.009211  -0.000976  -0.001289  -0.000009
    14  C    0.748423  -0.000821  -0.000000  -0.000000   0.000000  -0.000000
    15  N   -0.113980  -0.116212   0.000000   0.000000   0.000000   0.000000
    16  C    0.000010   0.021577   0.000308   0.001021   0.000144   0.000001
    17  H    0.000000   0.013820  -0.000028   0.000014   0.000018  -0.000000
    18  C    0.001795  -0.000000   0.000014   0.000001   0.000004  -0.000022
    19  H   -0.000012   0.000000  -0.000000   0.000000  -0.000000  -0.000000
    20  N   -0.000000  -0.000000   0.306894  -0.014829  -0.034932  -0.013805
    21  H   -0.000000  -0.000000  -0.056224   0.005491   0.000445   0.057756
    22  C    0.019655   0.000009   0.000001  -0.000000  -0.000000   0.000000
    23  H    0.015070   0.000000   0.000000   0.000000  -0.000000   0.000000
    24  C   -0.000720   0.754937   0.000000   0.000001  -0.000000  -0.000000
    25  O    7.821742  -0.000025   0.000000   0.000000   0.000000  -0.000000
    26  O   -0.000025   7.790639   0.000000   0.000000  -0.000000  -0.000000
    27  C    0.000000   0.000000   4.705758   0.388505   0.382745  -0.079000
    28  H    0.000000   0.000000   0.388505   0.583342  -0.032201   0.004910
    29  H    0.000000  -0.000000   0.382745  -0.032201   0.611099  -0.007121
    30  N   -0.000000  -0.000000  -0.079000   0.004910  -0.007121   6.756424
    31  C    0.000000   0.000000   0.359408  -0.014232  -0.009447   0.335111
    32  H    0.000000  -0.000000  -0.037072  -0.000361  -0.005902  -0.035384
    33  H   -0.000000  -0.000000  -0.013493  -0.011385   0.007129  -0.035837
    34  C    0.000000  -0.000000   0.004799   0.000004   0.003998   0.325324
    35  H   -0.000000   0.000000   0.017483   0.000358  -0.004373  -0.028156
    36  H    0.000000  -0.000000  -0.000016  -0.000003  -0.000204  -0.025867
    37  H   -0.000000   0.000000  -0.008576   0.000110   0.000502  -0.042705
    38  C    0.002553   0.001408  -0.000000   0.000000   0.000000  -0.000000
    39  H    0.000535   0.016600  -0.000000  -0.000000   0.000000  -0.000000
    40  H    0.017405   0.000519   0.000000   0.000000  -0.000000   0.000000
    41  C   -0.007311  -0.006116   0.000000   0.000000  -0.000000   0.000000
    42  H    0.000119   0.006981   0.000000   0.000000  -0.000000   0.000000
    43  H    0.008061   0.000095  -0.000000  -0.000000   0.000000  -0.000000
    44  C   -0.000173  -0.000196  -0.000000  -0.000000   0.000000  -0.000000
    45  H    0.000049  -0.000008  -0.000000  -0.000000   0.000000  -0.000000
    46  H   -0.000008   0.000047   0.000000   0.000000  -0.000000   0.000000
    47  C    0.000001   0.000002   0.000000   0.000000  -0.000000   0.000000
    48  H   -0.000000  -0.000000  -0.000000  -0.000000   0.000000   0.000000
    49  H    0.000000  -0.000009  -0.000000  -0.000000   0.000000  -0.000000
    50  H   -0.000009   0.000000   0.000000   0.000000  -0.000000   0.000000
              31         32         33         34         35         36
     1  C   -0.054670  -0.002970  -0.005860  -0.048294   0.006453  -0.004781
     2  H    0.007585  -0.000510   0.000474  -0.003814   0.000531   0.004769
     3  H   -0.003367  -0.002388   0.006302   0.007396  -0.000391   0.000443
     4  H   -0.008951   0.012776  -0.003394  -0.006490  -0.000687  -0.002875
     5  C    0.000251   0.000030  -0.000064  -0.000042  -0.000272  -0.000011
     6  C    0.000003   0.000001  -0.000002  -0.000002  -0.000016  -0.000000
     7  C    0.000005  -0.000000  -0.000000  -0.000000   0.000001   0.000000
     8  C   -0.000000   0.000000   0.000000   0.000000   0.000000  -0.000000
     9  C    0.010316  -0.000386   0.000196  -0.000139   0.000264   0.000024
    10  C   -0.000095  -0.000012   0.000051   0.000041   0.000201   0.000016
    11  H    0.000289  -0.000003   0.000020  -0.000027  -0.000087   0.000025
    12  C    0.000662  -0.000025  -0.000095  -0.000027   0.000041   0.000003
    13  H    0.000664  -0.000007  -0.000007  -0.000012   0.000005   0.000000
    14  C    0.000000  -0.000000   0.000000   0.000000   0.000000   0.000000
    15  N    0.000000   0.000000  -0.000000  -0.000000  -0.000000  -0.000000
    16  C   -0.000058   0.000001  -0.000000   0.000001   0.000003  -0.000000
    17  H   -0.000000  -0.000000   0.000000   0.000000  -0.000000  -0.000000
    18  C    0.000001  -0.000000   0.000002   0.000001   0.000005   0.000001
    19  H   -0.000000   0.000000  -0.000000  -0.000000   0.000000  -0.000000
    20  N   -0.045198   0.004777  -0.001993  -0.002938   0.002390   0.000101
    21  H   -0.018382   0.003342  -0.002629  -0.001925  -0.002847  -0.000998
    22  C    0.000000   0.000000  -0.000000  -0.000000  -0.000000  -0.000000
    23  H   -0.000000   0.000000  -0.000000   0.000000  -0.000000  -0.000000
    24  C   -0.000000  -0.000000  -0.000000  -0.000000   0.000000   0.000000
    25  O    0.000000   0.000000  -0.000000   0.000000  -0.000000   0.000000
    26  O    0.000000  -0.000000  -0.000000  -0.000000   0.000000  -0.000000
    27  C    0.359408  -0.037072  -0.013493   0.004799   0.017483  -0.000016
    28  H   -0.014232  -0.000361  -0.011385   0.000004   0.000358  -0.000003
    29  H   -0.009447  -0.005902   0.007129   0.003998  -0.004373  -0.000204
    30  N    0.335111  -0.035384  -0.035837   0.325324  -0.028156  -0.025867
    31  C    4.664383   0.387091   0.393654  -0.062114  -0.016038   0.008380
    32  H    0.387091   0.655005  -0.027792  -0.008098  -0.002786  -0.000209
    33  H    0.393654  -0.027792   0.622970   0.008490   0.000113  -0.000381
    34  C   -0.062114  -0.008098   0.008490   4.557509   0.404930   0.400263
    35  H   -0.016038  -0.002786   0.000113   0.404930   0.609703  -0.015411
    36  H    0.008380  -0.000209  -0.000381   0.400263  -0.015411   0.605213
    37  H    0.000162   0.013230  -0.000561   0.389949  -0.034251  -0.029083
    38  C   -0.000000  -0.000000   0.000000   0.000000  -0.000000   0.000000
    39  H    0.000000   0.000000   0.000000   0.000000  -0.000000   0.000000
    40  H   -0.000000  -0.000000  -0.000000  -0.000000   0.000000  -0.000000
    41  C   -0.000000  -0.000000  -0.000000  -0.000000   0.000000  -0.000000
    42  H   -0.000000  -0.000000  -0.000000  -0.000000   0.000000   0.000000
    43  H    0.000000   0.000000   0.000000   0.000000  -0.000000   0.000000
    44  C    0.000000   0.000000   0.000000   0.000000  -0.000000   0.000000
    45  H    0.000000   0.000000   0.000000   0.000000  -0.000000   0.000000
    46  H   -0.000000  -0.000000  -0.000000  -0.000000   0.000000  -0.000000
    47  C   -0.000000  -0.000000  -0.000000  -0.000000   0.000000  -0.000000
    48  H    0.000000   0.000000   0.000000  -0.000000  -0.000000   0.000000
    49  H    0.000000   0.000000   0.000000   0.000000  -0.000000  -0.000000
    50  H   -0.000000  -0.000000  -0.000000  -0.000000   0.000000  -0.000000
              37         38         39         40         41         42
     1  C   -0.002938  -0.000000  -0.000000   0.000000   0.000000   0.000000
     2  H   -0.002648   0.000000  -0.000000   0.000000  -0.000000   0.000000
     3  H   -0.000442   0.000000  -0.000000   0.000000  -0.000000   0.000000
     4  H    0.013578  -0.000000   0.000000  -0.000000   0.000000  -0.000000
     5  C    0.000009   0.000099   0.000002   0.000003  -0.000005   0.000002
     6  C    0.000000  -0.000055  -0.000176  -0.000191   0.000192  -0.000020
     7  C   -0.000000   0.009335   0.003794  -0.000392  -0.001355  -0.000095
     8  C   -0.000000   0.009779  -0.000351   0.003688  -0.001323   0.000087
     9  C   -0.000052  -0.000001   0.000000  -0.000000  -0.000000   0.000000
    10  C   -0.000007   0.000000  -0.000000   0.000001  -0.000000  -0.000000
    11  H    0.000001   0.000000   0.000000  -0.000000  -0.000000   0.000000
    12  C   -0.000008   0.000001  -0.000003   0.000000   0.000000  -0.000001
    13  H   -0.000003  -0.000000  -0.000000   0.000000   0.000000   0.000000
    14  C   -0.000000  -0.022744   0.006106  -0.009296  -0.004859  -0.001137
    15  N    0.000000   0.218351  -0.023577  -0.024096  -0.031613  -0.010048
    16  C    0.000000  -0.000465   0.000017   0.000006   0.000028  -0.000012
    17  H   -0.000000  -0.000049  -0.000007  -0.000001   0.000007  -0.000013
    18  C   -0.000000   0.000001   0.000000  -0.000003   0.000000  -0.000000
    19  H    0.000000  -0.000000   0.000000  -0.000000   0.000000  -0.000000
    20  N    0.000230   0.000000   0.000000  -0.000000   0.000000   0.000000
    21  H    0.001496   0.000000  -0.000000   0.000000  -0.000000   0.000000
    22  C    0.000000  -0.000461   0.000007   0.000013   0.000026  -0.000003
    23  H    0.000000  -0.000058  -0.000001  -0.000009   0.000008   0.000000
    24  C   -0.000000  -0.024150  -0.010149   0.005944  -0.004998   0.007051
    25  O   -0.000000   0.002553   0.000535   0.017405  -0.007311   0.000119
    26  O    0.000000   0.001408   0.016600   0.000519  -0.006116   0.006981
    27  C   -0.008576  -0.000000  -0.000000   0.000000   0.000000   0.000000
    28  H    0.000110   0.000000  -0.000000   0.000000   0.000000   0.000000
    29  H    0.000502   0.000000   0.000000  -0.000000  -0.000000  -0.000000
    30  N   -0.042705  -0.000000  -0.000000   0.000000   0.000000   0.000000
    31  C    0.000162  -0.000000   0.000000  -0.000000  -0.000000  -0.000000
    32  H    0.013230  -0.000000   0.000000  -0.000000  -0.000000  -0.000000
    33  H   -0.000561   0.000000   0.000000  -0.000000  -0.000000  -0.000000
    34  C    0.389949   0.000000   0.000000  -0.000000  -0.000000  -0.000000
    35  H   -0.034251  -0.000000  -0.000000   0.000000   0.000000   0.000000
    36  H   -0.029083   0.000000   0.000000  -0.000000  -0.000000   0.000000
    37  H    0.670260  -0.000000  -0.000000  -0.000000   0.000000  -0.000000
    38  C   -0.000000   4.626226   0.373287   0.372924   0.389306  -0.014718
    39  H   -0.000000   0.373287   0.629148  -0.023561  -0.019375  -0.011610
    40  H   -0.000000   0.372924  -0.023561   0.627869  -0.018405   0.007916
    41  C    0.000000   0.389306  -0.019375  -0.018405   4.759302   0.370874
    42  H   -0.000000  -0.014718  -0.011610   0.007916   0.370874   0.660705
    43  H   -0.000000  -0.014196   0.007990  -0.011551   0.369322  -0.030649
    44  C   -0.000000  -0.049764  -0.003996  -0.004212   0.409271  -0.023058
    45  H    0.000000  -0.006297  -0.001765   0.007147  -0.027256   0.008295
    46  H   -0.000000  -0.006424   0.007154  -0.001782  -0.026815  -0.010075
    47  C    0.000000   0.009340   0.000061   0.000078  -0.060670  -0.004122
    48  H    0.000000  -0.000488   0.000014   0.000014   0.008095  -0.000089
    49  H   -0.000000   0.000382  -0.000049   0.000023  -0.007910   0.006497
    50  H   -0.000000   0.000368   0.000022  -0.000049  -0.007778  -0.001496
              43         44         45         46         47         48
     1  C   -0.000000  -0.000000  -0.000000   0.000000   0.000000   0.000000
     2  H   -0.000000   0.000000  -0.000000   0.000000   0.000000   0.000000
     3  H   -0.000000  -0.000000  -0.000000   0.000000   0.000000   0.000000
     4  H    0.000000   0.000000   0.000000   0.000000   0.000000   0.000000
     5  C    0.000003   0.000000  -0.000000  -0.000000  -0.000000  -0.000000
     6  C   -0.000020   0.000001   0.000000  -0.000000   0.000000  -0.000000
     7  C    0.000089  -0.000002   0.000000  -0.000003  -0.000000   0.000000
     8  C   -0.000089  -0.000005  -0.000003   0.000000  -0.000000   0.000000
     9  C   -0.000000   0.000000   0.000000  -0.000000  -0.000000   0.000000
    10  C    0.000000   0.000000  -0.000000   0.000000  -0.000000   0.000000
    11  H    0.000000   0.000000  -0.000000  -0.000000  -0.000000   0.000000
    12  C   -0.000000   0.000000  -0.000000   0.000000  -0.000000   0.000000
    13  H    0.000000  -0.000000   0.000000   0.000000   0.000000  -0.000000
    14  C    0.006917  -0.000112  -0.000114   0.000065  -0.000014   0.000000
    15  N   -0.010046   0.005231   0.000102   0.000099  -0.000175   0.000004
    16  C   -0.000004  -0.000000   0.000000   0.000000   0.000000   0.000000
    17  H    0.000000   0.000000   0.000000  -0.000000   0.000000   0.000000
    18  C   -0.000000   0.000000   0.000000   0.000000  -0.000000   0.000000
    19  H   -0.000000  -0.000000   0.000000   0.000000   0.000000  -0.000000
    20  N   -0.000000  -0.000000   0.000000  -0.000000  -0.000000   0.000000
    21  H   -0.000000  -0.000000  -0.000000   0.000000   0.000000   0.000000
    22  C   -0.000009  -0.000000   0.000000   0.000000   0.000000   0.000000
    23  H   -0.000014   0.000000  -0.000000   0.000000   0.000000   0.000000
    24  C   -0.001109  -0.000054   0.000063  -0.000109  -0.000016   0.000000
    25  O    0.008061  -0.000173   0.000049  -0.000008   0.000001  -0.000000
    26  O    0.000095  -0.000196  -0.000008   0.000047   0.000002  -0.000000
    27  C   -0.000000  -0.000000  -0.000000   0.000000   0.000000  -0.000000
    28  H   -0.000000  -0.000000  -0.000000   0.000000   0.000000  -0.000000
    29  H    0.000000   0.000000   0.000000  -0.000000  -0.000000   0.000000
    30  N   -0.000000  -0.000000  -0.000000   0.000000   0.000000   0.000000
    31  C    0.000000   0.000000   0.000000  -0.000000  -0.000000   0.000000
    32  H    0.000000   0.000000   0.000000  -0.000000  -0.000000   0.000000
    33  H    0.000000   0.000000   0.000000  -0.000000  -0.000000   0.000000
    34  C    0.000000   0.000000   0.000000  -0.000000  -0.000000  -0.000000
    35  H   -0.000000  -0.000000  -0.000000   0.000000   0.000000  -0.000000
    36  H    0.000000   0.000000   0.000000  -0.000000  -0.000000   0.000000
    37  H   -0.000000  -0.000000   0.000000  -0.000000   0.000000   0.000000
    38  C   -0.014196  -0.049764  -0.006297  -0.006424   0.009340  -0.000488
    39  H    0.007990  -0.003996  -0.001765   0.007154   0.000061   0.000014
    40  H   -0.011551  -0.004212   0.007147  -0.001782   0.000078   0.000014
    41  C    0.369322   0.409271  -0.027256  -0.026815  -0.060670   0.008095
    42  H   -0.030649  -0.023058   0.008295  -0.010075  -0.004122  -0.000089
    43  H    0.660002  -0.022631  -0.009940   0.008248  -0.004213  -0.000080
    44  C   -0.022631   4.669155   0.386944   0.386526   0.423729  -0.017465
    45  H   -0.009940   0.386944   0.662839  -0.031104  -0.025758  -0.005482
    46  H    0.008248   0.386526  -0.031104   0.663533  -0.025723  -0.005514
    47  C   -0.004213   0.423729  -0.025758  -0.025723   4.585050   0.388315
    48  H   -0.000080  -0.017465  -0.005482  -0.005514   0.388315   0.630045
    49  H   -0.001483  -0.023574   0.007698  -0.008652   0.397040  -0.022814
    50  H    0.006412  -0.023606  -0.008671   0.007703   0.397158  -0.022801
              49         50
     1  C    0.000000   0.000000
     2  H   -0.000000   0.000000
     3  H    0.000000   0.000000
     4  H    0.000000   0.000000
     5  C    0.000000  -0.000000
     6  C    0.000000   0.000000
     7  C   -0.000000  -0.000000
     8  C   -0.000000  -0.000000
     9  C   -0.000000  -0.000000
    10  C   -0.000000  -0.000000
    11  H   -0.000000  -0.000000
    12  C    0.000000   0.000000
    13  H   -0.000000   0.000000
    14  C   -0.000001  -0.000002
    15  N    0.000001   0.000001
    16  C   -0.000000  -0.000000
    17  H    0.000000  -0.000000
    18  C    0.000000   0.000000
    19  H   -0.000000   0.000000
    20  N   -0.000000   0.000000
    21  H   -0.000000   0.000000
    22  C   -0.000000  -0.000000
    23  H   -0.000000   0.000000
    24  C   -0.000002  -0.000001
    25  O    0.000000  -0.000009
    26  O   -0.000009   0.000000
    27  C   -0.000000   0.000000
    28  H   -0.000000   0.000000
    29  H    0.000000  -0.000000
    30  N   -0.000000   0.000000
    31  C    0.000000  -0.000000
    32  H    0.000000  -0.000000
    33  H    0.000000  -0.000000
    34  C    0.000000  -0.000000
    35  H   -0.000000   0.000000
    36  H   -0.000000  -0.000000
    37  H   -0.000000  -0.000000
    38  C    0.000382   0.000368
    39  H   -0.000049   0.000022
    40  H    0.000023  -0.000049
    41  C   -0.007910  -0.007778
    42  H    0.006497  -0.001496
    43  H   -0.001483   0.006412
    44  C   -0.023574  -0.023606
    45  H    0.007698  -0.008671
    46  H   -0.008652   0.007703
    47  C    0.397040   0.397158
    48  H   -0.022814  -0.022801
    49  H    0.632823  -0.024846
    50  H   -0.024846   0.632332
 Mulliken charges:
               1
     1  C    0.043069
     2  H    0.058730
     3  H    0.057599
     4  H    0.026940
     5  C    0.068360
     6  C    0.099155
     7  C   -0.028311
     8  C   -0.108330
     9  C    0.097460
    10  C   -0.148201
    11  H    0.036147
    12  C   -0.048173
    13  H    0.061758
    14  C    0.227821
    15  N   -0.351794
    16  C   -0.067116
    17  H    0.044324
    18  C   -0.024256
    19  H    0.042954
    20  N   -0.153654
    21  H    0.186963
    22  C   -0.097622
    23  H    0.025144
    24  C    0.256528
    25  O   -0.362819
    26  O   -0.337461
    27  C    0.046243
    28  H    0.099872
    29  H    0.093612
    30  N   -0.463324
    31  C    0.064589
    32  H    0.047654
    33  H    0.064094
    34  C    0.031217
    35  H    0.062835
    36  H    0.060601
    37  H    0.031746
    38  C    0.126509
    39  H    0.049882
    40  H    0.050001
    41  C   -0.080643
    42  H    0.038617
    43  H    0.038894
    44  C   -0.112010
    45  H    0.043260
    46  H    0.042835
    47  C   -0.080082
    48  H    0.048244
    49  H    0.044875
    50  H    0.045262
 Sum of Mulliken charges =  -0.00000
 Mulliken charges with hydrogens summed into heavy atoms:
               1
     1  C    0.186339
     5  C    0.068360
     6  C    0.099155
     7  C   -0.028311
     8  C   -0.108330
     9  C    0.097460
    10  C   -0.112054
    12  C    0.013585
    14  C    0.227821
    15  N   -0.351794
    16  C   -0.022792
    18  C    0.018699
    20  N    0.033309
    22  C   -0.072478
    24  C    0.256528
    25  O   -0.362819
    26  O   -0.337461
    27  C    0.239727
    30  N   -0.463324
    31  C    0.176337
    34  C    0.186399
    38  C    0.226393
    41  C   -0.003132
    44  C   -0.025915
    47  C    0.058298
 Electronic spatial extent (au):  <R**2>=          13388.6573
 Charge=             -0.0000 electrons
 Dipole moment (field-independent basis, Debye):
    X=             16.2977    Y=             -4.0824    Z=              0.9892  Tot=             16.8303
 Quadrupole moment (field-independent basis, Debye-Ang):
   XX=           -110.3459   YY=           -156.0743   ZZ=           -150.6056
   XY=             -3.1901   XZ=             -1.4310   YZ=              1.0587
 Traceless Quadrupole moment (field-independent basis, Debye-Ang):
   XX=             28.6627   YY=            -17.0657   ZZ=            -11.5970
   XY=             -3.1901   XZ=             -1.4310   YZ=              1.0587
 Octapole moment (field-independent basis, Debye-Ang**2):
  XXX=            316.3978  YYY=            -13.6359  ZZZ=              5.8292  XYY=             98.3349
  XXY=            -52.7751  XXZ=             13.9492  XZZ=             17.0564  YZZ=             -6.2300
  YYZ=              7.2850  XYZ=              8.3596
 Hexadecapole moment (field-independent basis, Debye-Ang**3):
 XXXX=         -13455.7892 YYYY=          -2007.7592 ZZZZ=           -775.7398 XXXY=             25.4703
 XXXZ=             94.6774 YYYX=            -11.2412 YYYZ=             17.8611 ZZZX=             54.2409
 ZZZY=             11.5112 XXYY=          -2959.5232 XXZZ=          -2603.5250 YYZZ=           -490.9028
 XXYZ=             25.4031 YYXZ=            -28.3923 ZZXY=             -9.9751
 N-N= 2.130075308887D+03 E-N=-6.790975354260D+03  KE= 1.079345470893D+03
 Unable to Open any file for archive entry.
 1\1\GINC-X1003C5S0B0N0\SP\RM062X TD-FC\def2SVP\C20H25N3O2\1008721\10-O
 ct-2025\0\\# td=(nstates=3,root=1) scrf=(smd,solvent=ethanol,corrected
 lr) def2svp m062x\\BN-1_ethanol_m062x_m062x_m062x\\0,1\C,0,7.177374,
 0.765446,0.409885\H,0,7.277517,1.626558,1.086114\H,0,7.244027,1.13048,
 -0.62511\H,0,8.037806,0.087028,0.590375\C,0,1.149733,0.572127,-0.33019
 5\C,0,-0.257634,0.381858,-0.406629\C,0,-0.809616,-0.918042,-0.535917\C
 ,0,-1.114613,1.509472,-0.346494\C,0,2.017815,-0.591923,-0.38101\C,0,1.
 646068,1.891363,-0.210393\H,0,2.720053,2.079637,-0.16281\C,0,1.429926,
 -1.863715,-0.508998\H,0,2.061138,-2.750025,-0.542634\C,0,-2.584722,1.3
 28735,-0.416721\N,0,-3.057689,0.036059,-0.596104\C,0,0.046453,-2.01107
 9,-0.58383\H,0,-0.383735,-3.009959,-0.679314\C,0,0.79276,2.977612,-0.1
 5605\H,0,1.199718,3.984997,-0.064313\N,0,3.352571,-0.444795,-0.315375\
 H,0,3.756412,0.453906,-0.066743\C,0,-0.597387,2.786045,-0.220493\H,0,-
 1.281376,3.634869,-0.176311\C,0,-2.257823,-1.114093,-0.61472\O,0,-3.36
 0061,2.265715,-0.329028\O,0,-2.783142,-2.213657,-0.697727\C,0,4.294466
 ,-1.540981,-0.278511\H,0,4.15341,-2.199421,-1.149761\H,0,4.134867,-2.1
 61962,0.621177\N,0,5.901958,0.109953,0.626819\C,0,5.709698,-0.978387,-
 0.317945\H,0,6.424252,-1.81071,-0.145573\H,0,5.905106,-0.583324,-1.326
 893\C,0,5.766804,-0.325496,2.004607\H,0,4.75364,-0.706454,2.197947\H,0
 ,5.935378,0.526025,2.678909\H,0,6.493634,-1.122651,2.269163\C,0,-4.509
 019,-0.148025,-0.668814\H,0,-4.696055,-1.023636,-1.300841\H,0,-4.92716
 8,0.736334,-1.163597\C,0,-5.139873,-0.338303,0.705121\H,0,-4.680424,-1
 .215114,1.191315\H,0,-4.90845,0.539983,1.33075\C,0,-6.650445,-0.527747
 ,0.620725\H,0,-7.096923,0.346273,0.117511\H,0,-6.870446,-1.398205,-0.0
 19849\C,0,-7.294508,-0.718893,1.987823\H,0,-8.382754,-0.854364,1.90601
 2\H,0,-6.882838,-1.603847,2.497314\H,0,-7.111779,0.152768,2.635151\\Ve
 rsion=ES64L-G16RevC.01\State=1-A\HF=-1090.7075575\RMSD=3.979e-09\Dipol
 e=6.4119955,-1.6061421,0.3891952\Quadrupole=21.3100234,-12.6879255,-8.
 6220978,-2.3717898,-1.0638772,0.7871398\PG=C01 [X(C20H25N3O2)]\\@
 The archive entry for this job was punched.


 POCKETA-POCKETA
 BARON VON RICHTOFEN
 SLAUGHTERED THE ALLIES WITH
 HARDLY A CARE.
 KILLED EIGHTY-ONE WITH HIS
 BLOOD-COLORED TRIPLANE, THEN
 UN-AEROBATICALLY
 PLUNGED FROM THE AIR.
   -- TONY HOFFMAN
 Job cpu time:       0 days 12 hours 20 minutes  6.3 seconds.
 Elapsed time:       0 days  0 hours 23 minutes 22.6 seconds.
 File lengths (MBytes):  RWF=   1729 Int=      0 D2E=      0 Chk=     44 Scr=      1
 Normal termination of Gaussian 16 at Fri Oct 10 22:29:00 2025.
