 Entering Gaussian System, Link 0=g16
 Initial command:
 /home/users/sutd/1008721/g16/l1.exe "/home/users/sutd/1008721/scratch/g16/scratch/Gau-3581533.inp" -scrdir="/home/users/sutd/1008721/scratch/g16/scratch/"
 Entering Link 1 = /home/users/sutd/1008721/g16/l1.exe PID=   3581534.
  
 Copyright (c) 1988-2019, Gaussian, Inc.  All Rights Reserved.
  
 This is part of the Gaussian(R) 16 program.  It is based on
 the Gaussian(R) 09 system (copyright 2009, Gaussian, Inc.),
 the Gaussian(R) 03 system (copyright 2003, Gaussian, Inc.),
 the Gaussian(R) 98 system (copyright 1998, Gaussian, Inc.),
 the Gaussian(R) 94 system (copyright 1995, Gaussian, Inc.),
 the Gaussian 92(TM) system (copyright 1992, Gaussian, Inc.),
 the Gaussian 90(TM) system (copyright 1990, Gaussian, Inc.),
 the Gaussian 88(TM) system (copyright 1988, Gaussian, Inc.),
 the Gaussian 86(TM) system (copyright 1986, Carnegie Mellon
 University), and the Gaussian 82(TM) system (copyright 1983,
 Carnegie Mellon University). Gaussian is a federally registered
 trademark of Gaussian, Inc.
  
 This software contains proprietary and confidential information,
 including trade secrets, belonging to Gaussian, Inc.
  
 This software is provided under written license and may be
 used, copied, transmitted, or stored only in accord with that
 written license.
  
 The following legend is applicable only to US Government
 contracts under FAR:
  
                    RESTRICTED RIGHTS LEGEND
  
 Use, reproduction and disclosure by the US Government is
 subject to restrictions as set forth in subparagraphs (a)
 and (c) of the Commercial Computer Software - Restricted
 Rights clause in FAR 52.227-19.
  
 Gaussian, Inc.
 340 Quinnipiac St., Bldg. 40, Wallingford CT 06492
  
  
 ---------------------------------------------------------------
 Warning -- This program may not be used in any manner that
 competes with the business of Gaussian, Inc. or will provide
 assistance to any competitor of Gaussian, Inc.  The licensee
 of this program is prohibited from giving any competitor of
 Gaussian, Inc. access to this program.  By using this program,
 the user acknowledges that Gaussian, Inc. is engaged in the
 business of creating and licensing software in the field of
 computational chemistry and represents and warrants to the
 licensee that it is not a competitor of Gaussian, Inc. and that
 it will not use this program in any manner prohibited above.
 ---------------------------------------------------------------
  

 Cite this work as:
 Gaussian 16, Revision C.01,
 M. J. Frisch, G. W. Trucks, H. B. Schlegel, G. E. Scuseria, 
 M. A. Robb, J. R. Cheeseman, G. Scalmani, V. Barone, 
 G. A. Petersson, H. Nakatsuji, X. Li, M. Caricato, A. V. Marenich, 
 J. Bloino, B. G. Janesko, R. Gomperts, B. Mennucci, H. P. Hratchian, 
 J. V. Ortiz, A. F. Izmaylov, J. L. Sonnenberg, D. Williams-Young, 
 F. Ding, F. Lipparini, F. Egidi, J. Goings, B. Peng, A. Petrone, 
 T. Henderson, D. Ranasinghe, V. G. Zakrzewski, J. Gao, N. Rega, 
 G. Zheng, W. Liang, M. Hada, M. Ehara, K. Toyota, R. Fukuda, 
 J. Hasegawa, M. Ishida, T. Nakajima, Y. Honda, O. Kitao, H. Nakai, 
 T. Vreven, K. Throssell, J. A. Montgomery, Jr., J. E. Peralta, 
 F. Ogliaro, M. J. Bearpark, J. J. Heyd, E. N. Brothers, K. N. Kudin, 
 V. N. Staroverov, T. A. Keith, R. Kobayashi, J. Normand, 
 K. Raghavachari, A. P. Rendell, J. C. Burant, S. S. Iyengar, 
 J. Tomasi, M. Cossi, J. M. Millam, M. Klene, C. Adamo, R. Cammi, 
 J. W. Ochterski, R. L. Martin, K. Morokuma, O. Farkas, 
 J. B. Foresman, and D. J. Fox, Gaussian, Inc., Wallingford CT, 2019.
 
 ******************************************
 Gaussian 16:  ES64L-G16RevC.01  3-Jul-2019
                10-Oct-2025 
 ******************************************
 %nprocshared=32
 Will use up to   32 processors via shared memory.
 %mem=64GB
 %chk=06BN-1_ethanol_m062x_m062x_m062x.chk
 ----------------------------------------------------------------------
 # td=(nstates=3,root=1) scrf=(smd,solvent=ethanol,correctedlr,noneq=sa
 ve) def2svp m062x
 ----------------------------------------------------------------------
 1/30=1,38=1,172=1/1;
 2/12=2,17=6,18=5,40=1/2;
 3/5=43,7=101,11=9,25=1,30=1,70=9032201,71=1,72=4,74=-55/1,2,3,8;
 4//1;
 5/5=2,38=5,53=4/2;
 8/6=1,10=1,107=1,108=3/1;
 9/8=1,15=1,41=3,42=1,70=2,73=22/14;
 10/5=4,13=10,28=1,74=20/2;
 6/7=2,8=2,9=2,10=2,22=-1/1;
 99/5=1,9=1/99;
 --------------------------------
 BN-1_ethanol_m062x_m062x_m062x
 --------------------------------
 Symbolic Z-matrix:
 Charge =  0 Multiplicity = 1
 C                     7.04648   0.91272   0.18051 
 H                     7.12989   1.79971   0.82445 
 H                     6.97242   1.24949  -0.86327 
 H                     7.98035   0.32263   0.28727 
 C                     1.16086   0.53838  -0.25514 
 C                    -0.2521    0.36105  -0.35823 
 C                    -0.80124  -0.93723  -0.47825 
 C                    -1.11174   1.49087  -0.3371 
 C                     1.9908   -0.65524  -0.28247 
 C                     1.68456   1.8349   -0.13746 
 H                     2.75697   2.01772  -0.06673 
 C                     1.38913  -1.95452  -0.40186 
 H                     2.03103  -2.83513  -0.4054 
 C                    -2.5461    1.32843  -0.44408 
 N                    -3.03478   0.01908  -0.59937 
 C                     0.02891  -2.0958   -0.49536 
 H                    -0.43398  -3.07771  -0.58072 
 C                     0.81033   2.95058  -0.11147 
 H                     1.23721   3.95054  -0.01504 
 N                     3.31428  -0.53217  -0.19352 
 H                     3.72719   0.38475  -0.00934 
 C                    -0.55543   2.7946   -0.2064 
 H                    -1.22618   3.65357  -0.18713 
 C                    -2.25956  -1.12037  -0.57711 
 O                    -3.34383   2.26986  -0.40876 
 O                    -2.76318  -2.23992  -0.642 
 C                     4.29132  -1.59985  -0.19788 
 H                     4.1036   -2.28797  -1.03541 
 H                     4.20943  -2.18873   0.73266 
 N                     5.86683   0.14899   0.54313 
 C                     5.67696  -0.98163  -0.34964 
 H                     6.43518  -1.77621  -0.19377 
 H                     5.78841  -0.61772  -1.38215 
 C                     5.91099  -0.24947   1.93907 
 H                     4.96974  -0.73142   2.24012 
 H                     6.0462    0.6389    2.57178 
 H                     6.74359  -0.95294   2.14878 
 C                    -4.48469  -0.15286  -0.7021 
 H                    -4.66722  -1.04559  -1.31199 
 H                    -4.88117   0.72192  -1.22975 
 C                    -5.14844  -0.29554   0.66213 
 H                    -4.7093   -1.16123   1.18592 
 H                    -4.92021   0.60021   1.2636 
 C                    -6.65883  -0.47146   0.55081 
 H                    -7.08367   0.38936   0.00769 
 H                    -6.87532  -1.36126  -0.06392 
 C                    -7.33515  -0.60713   1.90895 
 H                    -8.42291  -0.73333   1.80764 
 H                    -6.9454   -1.47794   2.45851 
 H                    -7.15634   0.28486   2.5291 
 
                          Input orientation:                          
 ---------------------------------------------------------------------
 Center     Atomic      Atomic             Coordinates (Angstroms)
 Number     Number       Type             X           Y           Z
 ---------------------------------------------------------------------
      1          6           0        7.046477    0.912716    0.180508
      2          1           0        7.129886    1.799707    0.824446
      3          1           0        6.972422    1.249487   -0.863272
      4          1           0        7.980351    0.322626    0.287273
      5          6           0        1.160861    0.538383   -0.255138
      6          6           0       -0.252097    0.361051   -0.358225
      7          6           0       -0.801238   -0.937232   -0.478253
      8          6           0       -1.111737    1.490874   -0.337097
      9          6           0        1.990799   -0.655242   -0.282471
     10          6           0        1.684560    1.834902   -0.137464
     11          1           0        2.756972    2.017723   -0.066725
     12          6           0        1.389131   -1.954515   -0.401862
     13          1           0        2.031029   -2.835129   -0.405401
     14          6           0       -2.546097    1.328434   -0.444084
     15          7           0       -3.034784    0.019080   -0.599369
     16          6           0        0.028909   -2.095801   -0.495363
     17          1           0       -0.433982   -3.077706   -0.580718
     18          6           0        0.810330    2.950576   -0.111468
     19          1           0        1.237212    3.950543   -0.015043
     20          7           0        3.314277   -0.532174   -0.193523
     21          1           0        3.727194    0.384754   -0.009338
     22          6           0       -0.555434    2.794601   -0.206395
     23          1           0       -1.226178    3.653569   -0.187125
     24          6           0       -2.259564   -1.120371   -0.577106
     25          8           0       -3.343826    2.269863   -0.408762
     26          8           0       -2.763184   -2.239918   -0.642003
     27          6           0        4.291318   -1.599845   -0.197876
     28          1           0        4.103603   -2.287972   -1.035414
     29          1           0        4.209434   -2.188727    0.732657
     30          7           0        5.866828    0.148990    0.543134
     31          6           0        5.676961   -0.981625   -0.349641
     32          1           0        6.435180   -1.776213   -0.193770
     33          1           0        5.788409   -0.617720   -1.382145
     34          6           0        5.910992   -0.249471    1.939066
     35          1           0        4.969737   -0.731421    2.240123
     36          1           0        6.046199    0.638897    2.571780
     37          1           0        6.743591   -0.952936    2.148775
     38          6           0       -4.484689   -0.152861   -0.702099
     39          1           0       -4.667222   -1.045586   -1.311991
     40          1           0       -4.881167    0.721916   -1.229751
     41          6           0       -5.148444   -0.295536    0.662128
     42          1           0       -4.709295   -1.161225    1.185921
     43          1           0       -4.920212    0.600211    1.263595
     44          6           0       -6.658833   -0.471460    0.550814
     45          1           0       -7.083672    0.389364    0.007686
     46          1           0       -6.875319   -1.361256   -0.063919
     47          6           0       -7.335152   -0.607132    1.908946
     48          1           0       -8.422906   -0.733326    1.807641
     49          1           0       -6.945395   -1.477941    2.458509
     50          1           0       -7.156342    0.284860    2.529097
 ---------------------------------------------------------------------
                    Distance matrix (angstroms):
                    1          2          3          4          5
     1  C    0.000000
     2  H    1.099257   0.000000
     3  H    1.099261   1.782114   0.000000
     4  H    1.109831   1.787069   1.788504   0.000000
     5  C    5.913577   6.195619   5.886403   6.844429   0.000000
     6  C    7.339193   7.613285   7.296442   8.257805   1.427769
     7  C    8.089679   8.490618   8.084539   8.904470   2.465168
     8  C    8.195037   8.328800   8.104860   9.188074   2.465493
     9  C    5.313447   5.801918   5.364876   6.095537   1.454058
    10  C    5.449925   5.529745   5.369450   6.488788   1.403235
    11  H    4.436442   4.468120   4.358290   5.502941   2.184380
    12  C    6.369123   6.968090   6.453810   7.007457   2.507623
    13  H    6.288430   6.999469   6.427371   6.770941   3.487170
    14  C    9.621872   9.770154   9.528072  10.599653   3.794920
    15  N   10.150794  10.417216  10.086016  11.054930   4.241652
    16  C    7.665131   8.206141   7.716131   8.347858   2.877142
    17  H    8.512356   9.109102   8.582497   9.116834   3.965555
    18  C    6.567165   6.491319   6.436637   7.646850   2.441759
    19  H    6.558521   6.328858   6.395923   7.663100   3.421449
    20  N    4.019568   4.586153   4.123700   4.768028   2.405637
    21  H    3.366367   3.778307   3.465324   4.263940   2.582651
    22  C    7.840933   7.817710   7.712813   8.900224   2.835236
    23  H    8.722629   8.618810   8.570521   9.802062   3.925171
    24  C    9.555617   9.932420   9.535601  10.377150   3.815028
    25  O   10.495117  10.556538  10.376547  11.511437   4.828440
    26  O   10.336589  10.786189  10.344415  11.083940   4.823562
    27  C    3.747938   4.545279   3.968597   4.188106   3.791445
    28  H    4.514795   5.415403   4.557781   4.857355   4.154136
    29  H    4.239414   4.944196   4.690672   4.552480   4.207929
    30  N    1.451326   2.097455   2.100336   2.136023   4.789049
    31  C    2.396906   3.350415   2.630570   2.722560   4.765975
    32  H    2.782824   3.782405   3.145111   2.650298   5.760170
    33  H    2.523263   3.537309   2.271030   2.911326   4.901114
    34  C    2.394270   2.631959   3.350613   2.708867   5.291407
    35  H    3.355302   3.616213   4.191158   3.740112   4.727184
    36  H    2.606476   2.361151   3.609749   3.009974   5.645183
    37  H    2.728823   3.078979   3.738376   2.573290   6.258570
    38  C   11.613881  11.876077  11.543741  12.513280   5.705246
    39  H   11.969680  12.322005  11.872237  12.821496   6.131268
    40  H   12.012241  12.233019  11.870982  12.956830   6.122880
    41  C   12.264091  12.456877  12.313786  13.148684   6.429940
    42  H   11.979577  12.209176  12.102613  12.807673   6.278857
    43  H   12.019666  12.117611  12.098755  12.940432   6.268159
    44  C   13.780007  13.977190  13.812039  14.663074   7.925715
    45  H   14.140894  14.306691  14.109293  15.066765   8.250067
    46  H   14.108405  14.384945  14.114350  14.954923   8.259866
    47  C   14.564638  14.703957  14.691457  15.429158   8.841815
    48  H   15.641574  15.788359  15.750602  16.507374   9.885388
    49  H   14.376266  14.543957  14.566356  15.189937   8.782985
    50  H   14.409377  14.467097  14.562302  15.301852   8.774514
                    6          7          8          9         10
     6  C    0.000000
     7  C    1.414744   0.000000
     8  C    1.419834   2.451945   0.000000
     9  C    2.463569   2.813062   3.772867   0.000000
    10  C    2.443688   3.738991   2.824444   2.513091   0.000000
    11  H    3.447322   4.643487   3.913768   2.788962   1.090181
    12  C    2.838552   2.416282   4.257845   1.436791   3.810100
    13  H    3.928162   3.410140   5.347518   2.183721   4.690525
    14  C    2.491112   2.859885   1.447488   4.954242   4.271883
    15  N    2.813973   2.432679   2.435790   5.080514   5.077674
    16  C    2.476670   1.425384   3.767009   2.443265   4.280152
    17  H    3.450744   2.174168   4.625000   3.440472   5.368278
    18  C    2.809854   4.224539   2.424042   3.797983   1.417633
    19  H    3.901316   5.316031   3.416321   4.674684   2.165882
    20  N    3.680218   4.145191   4.868566   1.332160   2.874399
    21  H    3.994626   4.740699   4.974553   2.042366   2.508326
    22  C    2.457078   3.749787   1.423468   4.288415   2.437898
    23  H    3.437846   4.619609   2.170907   5.378093   3.432552
    24  C    2.504485   1.473101   2.862466   4.285877   4.948034
    25  O    3.633855   4.093292   2.365202   6.085262   5.054449
    26  O    3.626448   2.360728   4.091339   5.024024   6.053193
    27  C    4.951105   5.143131   6.226149   2.488337   4.312346
    28  H    5.142765   5.117850   6.478202   2.774288   4.863761
    29  H    5.253251   5.304656   6.557339   2.881736   4.829254
    30  N    6.188591   6.832731   7.160714   4.043762   4.560359
    31  C    6.079192   6.479628   7.224945   3.701193   4.890512
    32  H    7.022437   7.290443   8.224984   4.584426   5.967555
    33  H    6.204363   6.659021   7.290426   3.953800   4.940259
    34  C    6.605600   7.167320   7.584751   4.524134   5.149691
    35  H    5.934009   6.382482   6.968858   3.904274   4.799096
    36  H    6.952026   7.659914   7.773254   5.125214   5.272032
    37  H    7.546606   7.989116   8.594065   5.346832   6.212304
    38  C    4.277521   3.772686   3.769867   6.508488   6.506124
    39  H    4.730922   3.956348   4.474988   6.748446   7.072613
    40  H    4.724200   4.468036   3.949270   7.072328   6.748378
    41  C    5.044447   4.539873   4.526004   7.210440   7.201948
    42  H    4.956645   4.253535   4.721826   6.877751   7.183976
    43  H    4.947605   4.729029   4.226107   7.192257   6.863705
    44  C    6.524239   5.965513   5.950581   8.691621   8.683619
    45  H    6.841426   6.439330   6.082451   9.139005   8.887775
    46  H    6.849819   6.102944   6.436470   8.896869   9.137416
    47  C    7.499807   6.964174   6.940982   9.580083   9.565904
    48  H    8.523541   7.959693   7.937264  10.621672  10.608492
    49  H    7.491069   6.831369   7.117643   9.383249   9.601569
    50  H    7.484052   7.136176   6.797557   9.615555   9.363478
                   11         12         13         14         15
    11  H    0.000000
    12  C    4.214496   0.000000
    13  H    4.918523   1.089737   0.000000
    14  C    5.360976   5.124993   6.187636   0.000000
    15  N    6.150018   4.848207   5.817783   1.406178   0.000000
    16  C    4.954507   1.370733   2.136161   4.284702   3.724212
    17  H    6.034051   2.148788   2.483115   4.888125   4.044082
    18  C    2.159081   4.947652   5.920379   3.742670   4.859693
    19  H    2.459296   5.919664   6.843089   4.623090   5.835048
    20  N    2.613167   2.402633   2.644848   6.153749   6.385857
    21  H    1.900319   3.330585   3.660804   6.358751   6.797514
    22  C    3.405155   5.135528   6.198649   2.483723   3.742342
    23  H    4.307664   6.191652   7.263625   2.685976   4.080504
    24  C    5.939171   3.746930   4.623750   2.469097   1.378336
    25  O    6.115578   6.343997   7.412828   1.234467   2.279882
    26  O    6.995039   4.169034   4.836810   3.580424   2.275666
    27  C    3.931694   2.930886   2.584163   7.442156   7.513580
    28  H    4.614194   2.807301   2.234247   7.592534   7.514599
    29  H    4.521380   3.048950   2.541350   7.706643   7.689434
    30  N    3.679035   5.036618   4.951569   8.552368   8.975572
    31  C    4.195529   4.397127   4.090404   8.541895   8.772587
    32  H    5.285764   5.053484   4.534604   9.506042   9.647166
    33  H    4.226760   4.701236   4.470888   8.609963   8.880709
    34  C    4.371637   5.369762   5.218838   8.927012   9.302832
    35  H    4.216120   4.614844   4.478883   8.242313   8.526331
    36  H    4.436427   6.103820   6.087204   9.132275   9.638704
    37  H    5.443013   6.014911   5.681083   9.910897  10.203613
    38  C    7.586619   6.151249   7.052459   2.453354   1.463674
    39  H    8.127312   6.191438   6.992205   3.299758   2.075138
    40  H    7.834087   6.867701   7.817325   2.537260   2.073762
    41  C    8.269099   6.828190   7.689862   3.260858   2.481515
    42  H    8.210967   6.351469   7.125042   3.678960   2.717419
    43  H    7.919485   7.007723   7.931384   3.013785   2.713519
    44  C    9.758830   8.238736   9.056212   4.598265   3.833703
    45  H    9.974736   8.800562   9.677074   4.655699   4.110854
    46  H   10.207768   8.292605   9.033933   5.110883   4.116035
    47  C   10.613393   9.125151   9.901794   5.676109   5.017664
    48  H   11.664956  10.131598  10.890358   6.622538   5.949090
    49  H   10.617551   8.824578   9.519460   5.971148   5.185033
    50  H   10.393022   9.307547  10.136735   5.584193   5.181233
                   16         17         18         19         20
    16  C    0.000000
    17  H    1.088894   0.000000
    18  C    5.120929   6.173224   0.000000
    19  H    6.184576   7.246321   1.091540   0.000000
    20  N    3.650983   4.547428   4.290225   4.943764   0.000000
    21  H    4.479585   5.443390   3.886125   4.349126   1.022341
    22  C    4.933659   5.885479   1.377915   2.141588   5.103162
    23  H    5.892835   6.789150   2.155757   2.487186   6.175453
    24  C    2.489027   2.676551   5.119929   6.185267   5.617901
    25  O    5.517415   6.090423   4.220043   4.895468   7.226899
    26  O    2.799653   2.476051   6.323978   7.397165   6.328748
    27  C    4.301465   4.965793   5.729841   6.337807   1.447256
    28  H    4.114817   4.628186   6.256333   6.940924   2.101105
    29  H    4.358148   4.906786   6.219236   6.861763   2.098400
    30  N    6.340257   7.167623   5.817694   6.016370   2.742656
    31  C    5.758742   6.464563   6.261232   6.644517   2.410115
    32  H    6.421324   7.002071   7.347669   7.736055   3.359713
    33  H    6.011900   6.738840   6.255288   6.591767   2.746174
    34  C    6.628294   7.389649   6.360955   6.580492   3.372060
    35  H    5.810008   6.531644   6.032226   6.398305   2.950064
    36  H    7.286544   8.108275   6.321234   6.386314   4.059767
    37  H    7.306474   7.967580   7.453166   7.684167   4.174158
    38  C    4.918366   4.997767   6.165825   7.074611   7.824730
    39  H    4.880930   4.752325   6.885793   7.842558   8.075821
    40  H    5.708564   5.885221   6.213744   7.023824   8.355346
    41  C    5.602296   5.613492   6.829545   7.698334   8.509159
    42  H    5.113778   5.007216   7.004026   7.933059   8.165554
    43  H    5.903915   6.087267   6.344614   7.125553   8.438738
    44  C    6.961240   6.842635   8.242411   9.067625  10.001032
    45  H    7.551021   7.522312   8.299956   9.050946  10.440645
    46  H    6.956584   6.686113   8.812682   9.696946  10.224091
    47  C    7.888361   7.741338   9.115275   9.897452  10.855244
    48  H    8.865289   8.661598  10.124562  10.889384  11.908257
    49  H    7.599212   7.361701   9.293429  10.126300  10.639014
    50  H    8.151241   8.134367   8.806048   9.505873  10.849611
                   21         22         23         24         25
    21  H    0.000000
    22  C    4.918038   0.000000
    23  H    5.937395   1.089998   0.000000
    24  C    6.199116   4.285848   4.900048   0.000000
    25  O    7.328881   2.844544   2.539330   3.563376   0.000000
    26  O    7.029522   5.514553   6.107576   1.229321   4.552985
    27  C    2.071815   6.542342   7.618480   6.579344   8.562391
    28  H    2.887556   6.944526   8.026710   6.485617   8.753899
    29  H    2.721381   6.958401   8.032702   6.686165   8.844976
    30  N    2.222351   6.986165   7.945193   8.300871   9.499492
    31  C    2.405076   7.288563   8.316536   7.940996   9.589070
    32  H    3.469435   8.352316   9.390367   8.727866  10.585174
    33  H    2.671734   7.298676   8.299181   8.103741   9.627218
    34  C    2.994577   7.462174   8.407949   8.593461   9.874766
    35  H    2.801756   6.996127   7.969255   7.768581   9.227114
    36  H    3.479158   7.479764   8.341899   9.055176   9.985802
    37  H    3.942780   8.536195   9.497028   9.408255  10.894192
    38  C    8.258569   4.936831   5.037063   2.429584   2.693920
    39  H    8.614464   5.733775   5.931961   2.518425   3.682309
    40  H    8.700975   4.904615   4.800063   3.269980   2.331004
    41  C    8.926960   5.603483   5.630349   3.249874   3.314321
    42  H    8.659852   5.902683   6.099148   3.018462   4.022423
    43  H    8.743249   5.101716   5.007342   3.664373   2.840688
    44  C   10.436303   6.963620   6.861061   4.587685   4.407370
    45  H   10.810880   6.960523   6.708444   5.088546   4.206680
    46  H   10.745455   7.565209   7.554895   4.650439   5.076946
    47  C   11.271165   7.874708   7.737354   5.674986   5.438709
    48  H   12.335982   8.854362   8.661226   6.619940   6.303066
    49  H   11.111438   8.135596   8.126575   5.594625   5.936209
    50  H   11.176090   7.573223   7.341179   5.966708   5.206393
                   26         27         28         29         30
    26  O    0.000000
    27  C    7.097390   0.000000
    28  H    6.878215   1.100103   0.000000
    29  H    7.107019   1.104255   1.774014   0.000000
    30  N    9.032637   2.467742   3.396993   2.871897   0.000000
    31  C    8.538432   1.524872   2.156915   2.186801   1.453061
    32  H    9.220945   2.151108   2.531109   2.445890   2.138331
    33  H    8.735507   2.146705   2.397610   3.071419   2.073811
    34  C    9.266344   3.002228   4.033568   2.848058   1.452359
    35  H    8.389296   2.675491   3.728563   2.230304   2.111792
    36  H    9.809241   3.970210   5.035086   3.840773   2.094657
    37  H    9.991173   3.455272   4.346368   3.155079   2.135659
    38  C    2.706104   8.908777   8.855990   9.043840  10.430514
    39  H    2.345351   9.044551   8.862696   9.180543  10.762653
    40  H    3.688328   9.517869   9.477515   9.744840  10.908289
    41  C    3.342281   9.568173   9.615187   9.547724  11.024880
    42  H    2.879624   9.116925   9.158114   8.989157  10.676339
    43  H    4.043564   9.582715   9.749681   9.560884  10.820485
    44  C    4.441434  11.033567  11.029318  11.004604  12.541021
    45  H    5.099200  11.549442  11.550381  11.606308  12.963793
    46  H    4.244512  11.169989  11.060711  11.144101  12.845687
    47  C    5.484179  11.857444  11.930616  11.711642  13.293962
    48  H    6.348467  12.900560  12.938830  12.761262  14.372681
    49  H    5.261623  11.547076  11.616540  11.309907  13.056363
    50  H    5.977476  11.917945  12.087662  11.769736  13.174425
                   31         32         33         34         35
    31  C    0.000000
    32  H    1.109307   0.000000
    33  H    1.100414   1.781195   0.000000
    34  C    2.414332   2.674828   3.343812   0.000000
    35  H    2.696228   3.027036   3.715370   1.099487   0.000000
    36  H    3.361120   3.692198   4.156809   1.099002   1.773848
    37  H    2.716727   2.502083   3.673165   1.109983   1.789964
    38  C   10.201481  11.051570  10.306071  10.726382   9.918547
    39  H   10.389049  11.182467  10.464617  11.095124  10.275563
    40  H   10.730830  11.635017  10.754427  11.289628  10.544787
    41  C   10.894209  11.709198  11.130930  11.133006  10.249763
    42  H   10.500691  11.246381  10.820913  10.685926   9.745755
    43  H   10.835350  11.692572  11.097651  10.885458  10.026861
    44  C   12.379132  13.179908  12.597284  12.648202  11.753509
    45  H   12.839044  13.692687  12.986005  13.152932  12.309533
    46  H   12.561269  13.317599  12.753845  12.989910  12.083487
    47  C   13.211985  13.978920  13.529939  13.251006  12.309972
    48  H   14.266106  15.028506  14.565355  14.342664  13.399624
    49  H   12.940476  13.644169  13.328179  12.925388  11.940492
    50  H   13.213053  14.013975  13.552824  13.091557  12.172022
                   36         37         38         39         40
    36  H    0.000000
    37  H    1.788637   0.000000
    38  C   11.056436  11.612143   0.000000
    39  H   11.519486  11.924435   1.096469   0.000000
    40  H   11.570041  12.221071   1.095831   1.782302   0.000000
    41  C   11.394734  12.002616   1.523825   2.165940   2.164683
    42  H   10.992802  11.495176   2.152177   2.500941   3.067773
    43  H   11.044230  11.800005   2.149593   3.066968   2.496620
    44  C   12.912592  13.505935   2.529466   2.786786   2.784718
    45  H   13.380223  14.056288   2.748184   3.104812   2.548111
    46  H   13.338409  13.803530   2.753653   2.555978   3.110532
    47  C   13.455575  14.085031   3.892179   4.205298   4.199980
    48  H   14.554103  15.171922   4.705878   4.892318   4.887473
    49  H   13.163409  13.702551   4.219047   4.426474   4.764837
    50  H   13.207356  13.960119   4.215443   4.766525   4.415470
                   41         42         43         44         45
    41  C    0.000000
    42  H    1.103009   0.000000
    43  H    1.102821   1.775718   0.000000
    44  C    1.524669   2.163293   2.163178   0.000000
    45  H    2.154644   3.070868   2.510443   1.102948   0.000000
    46  H    2.155226   2.508739   3.071171   1.102950   1.764429
    47  C    2.536403   2.779372   2.775985   1.523265   2.161258
    48  H    3.496564   3.789530   3.787238   2.181775   2.508748
    49  H    2.802517   2.592283   3.138137   2.175873   3.084231
    50  H    2.802514   3.143775   2.588671   2.175578   2.524622
                   46         47         48         49         50
    46  H    0.000000
    47  C    2.161561   0.000000
    48  H    2.508398   1.099726   0.000000
    49  H    2.526098   1.101017   1.777954   0.000000
    50  H    3.084219   1.101004   1.778029   1.776780   0.000000
 Stoichiometry    C20H25N3O2
 Framework group  C1[X(C20H25N3O2)]
 Deg. of freedom   144
 Full point group                 C1      NOp   1
 Largest Abelian subgroup         C1      NOp   1
 Largest concise Abelian subgroup C1      NOp   1
                         Standard orientation:                         
 ---------------------------------------------------------------------
 Center     Atomic      Atomic             Coordinates (Angstroms)
 Number     Number       Type             X           Y           Z
 ---------------------------------------------------------------------
      1          6           0        7.046477    0.912716    0.180508
      2          1           0        7.129886    1.799707    0.824446
      3          1           0        6.972422    1.249487   -0.863272
      4          1           0        7.980351    0.322626    0.287273
      5          6           0        1.160861    0.538383   -0.255138
      6          6           0       -0.252097    0.361051   -0.358225
      7          6           0       -0.801238   -0.937232   -0.478253
      8          6           0       -1.111737    1.490874   -0.337097
      9          6           0        1.990799   -0.655242   -0.282471
     10          6           0        1.684560    1.834902   -0.137464
     11          1           0        2.756972    2.017723   -0.066725
     12          6           0        1.389131   -1.954515   -0.401862
     13          1           0        2.031029   -2.835129   -0.405401
     14          6           0       -2.546097    1.328434   -0.444084
     15          7           0       -3.034784    0.019080   -0.599369
     16          6           0        0.028909   -2.095801   -0.495363
     17          1           0       -0.433982   -3.077706   -0.580718
     18          6           0        0.810330    2.950576   -0.111468
     19          1           0        1.237212    3.950543   -0.015043
     20          7           0        3.314277   -0.532174   -0.193523
     21          1           0        3.727194    0.384754   -0.009338
     22          6           0       -0.555434    2.794601   -0.206395
     23          1           0       -1.226178    3.653569   -0.187125
     24          6           0       -2.259564   -1.120371   -0.577106
     25          8           0       -3.343826    2.269863   -0.408762
     26          8           0       -2.763184   -2.239918   -0.642003
     27          6           0        4.291318   -1.599845   -0.197876
     28          1           0        4.103603   -2.287972   -1.035414
     29          1           0        4.209434   -2.188727    0.732657
     30          7           0        5.866828    0.148990    0.543134
     31          6           0        5.676961   -0.981625   -0.349641
     32          1           0        6.435180   -1.776213   -0.193770
     33          1           0        5.788409   -0.617720   -1.382145
     34          6           0        5.910992   -0.249471    1.939066
     35          1           0        4.969737   -0.731421    2.240123
     36          1           0        6.046199    0.638897    2.571780
     37          1           0        6.743591   -0.952936    2.148775
     38          6           0       -4.484689   -0.152861   -0.702099
     39          1           0       -4.667222   -1.045586   -1.311991
     40          1           0       -4.881167    0.721916   -1.229751
     41          6           0       -5.148444   -0.295536    0.662128
     42          1           0       -4.709295   -1.161225    1.185921
     43          1           0       -4.920212    0.600211    1.263595
     44          6           0       -6.658833   -0.471460    0.550814
     45          1           0       -7.083672    0.389364    0.007686
     46          1           0       -6.875319   -1.361256   -0.063919
     47          6           0       -7.335152   -0.607132    1.908946
     48          1           0       -8.422906   -0.733326    1.807641
     49          1           0       -6.945395   -1.477941    2.458509
     50          1           0       -7.156342    0.284860    2.529097
 ---------------------------------------------------------------------
 Rotational constants (GHZ):           0.5510828           0.0889365           0.0812101
 Standard basis: def2SVP (5D, 7F)
 There are   500 symmetry adapted cartesian basis functions of A   symmetry.
 There are   475 symmetry adapted basis functions of A   symmetry.
   475 basis functions,   800 primitive gaussians,   500 cartesian basis functions
    91 alpha electrons       91 beta electrons
       nuclear repulsion energy      2130.0913759198 Hartrees.
 NAtoms=   50 NActive=   50 NUniq=   50 SFac= 1.00D+00 NAtFMM=   60 NAOKFM=F Big=F
 Integral buffers will be    131072 words long.
 Regular integral format.
 Two-electron integral symmetry is turned on.
 ------------------------------------------------------------------------------
 Polarizable Continuum Model (PCM)
 =================================
 Model                : PCM.
 Atomic radii         : SMD-Coulomb.
 Polarization charges : Total charges.
 Charge compensation  : None.
 Solution method      : On-the-fly selection.
 Cavity type          : VdW (van der Waals Surface) (Alpha=1.000).
 Cavity algorithm     : GePol (No added spheres)
                        Default sphere list used, NSphG=   50.
                        Lebedev-Laikov grids with approx.  5.0 points / Ang**2.
                        Smoothing algorithm: York/Karplus (Gamma=1.0000).
                        Polarization charges: spherical gaussians, with
                                              point-specific exponents (IZeta= 3).
                        Self-potential: point-specific (ISelfS= 7).
                        Self-field    : sphere-specific E.n sum rule (ISelfD= 2).
 1st derivatives      : Analytical E(r).r(x)/FMM algorithm (CHGder, D1EAlg=3).
                        Cavity 1st derivative terms included.
 Solvent              : Ethanol, Eps=  24.852000 Eps(inf)=   1.852593
 ------------------------------------------------------------------------------
 ------------------------------------------------------------------------------
 Atomic radii for non-electrostatic terms: SMD-CDS.
 ------------------------------------------------------------------------------
 Nuclear repulsion after PCM non-electrostatic terms =     2130.0884791219 Hartrees.
 One-electron integrals computed using PRISM.
   1 Symmetry operations used in ECPInt.
 ECPInt:  NShTT=   25425 NPrTT=   90925 LenC2=   20310 LenP2D=   49169.
 LDataN:  DoStor=T MaxTD1= 4 Len=   56
 NBasis=   475 RedAO= T EigKep=  2.26D-04  NBF=   475
 NBsUse=   475 1.00D-06 EigRej= -1.00D+00 NBFU=   475
 ExpMin= 1.22D-01 ExpMax= 2.27D+03 ExpMxC= 3.41D+02 IAcc=3 IRadAn=         5 AccDes= 0.00D+00
 Harris functional with IExCor= 1009 and IRadAn=       5 diagonalized for initial guess.
 HarFok:  IExCor= 1009 AccDes= 0.00D+00 IRadAn=         5 IDoV= 1 UseB2=F ITyADJ=14
 ICtDFT=  3500011 ScaDFX=  1.000000  1.000000  1.000000  1.000000
 FoFCou: FMM=F IPFlag=           0 FMFlag=      100000 FMFlg1=           0
         NFxFlg=           0 DoJE=T BraDBF=F KetDBF=T FulRan=T
         wScrn=  0.000000 ICntrl=       500 IOpCl=  0 I1Cent=   200000004 NGrid=           0
         NMat0=    1 NMatS0=      1 NMatT0=    0 NMatD0=    1 NMtDS0=    0 NMtDT0=    0
 Petite list used in FoFCou.
 Requested convergence on RMS density matrix=1.00D-08 within 128 cycles.
 Requested convergence on MAX density matrix=1.00D-06.
 Requested convergence on             energy=1.00D-06.
 No special actions if energy rises.
 Inv3:  Mode=1 IEnd=    36247728.
 Iteration    1 A*A^-1 deviation from unit magnitude is 5.77D-15 for   3460.
 Iteration    1 A*A^-1 deviation from orthogonality  is 2.00D-15 for   2443    346.
 Iteration    1 A^-1*A deviation from unit magnitude is 5.77D-15 for   3460.
 Iteration    1 A^-1*A deviation from orthogonality  is 5.79D-15 for   2139   2104.
 Error on total polarization charges =  0.06310
 SCF Done:  E(RM062X) =  -1090.70055468     A.U. after   14 cycles
            NFock= 14  Conv=0.68D-08     -V/T= 2.0108
 SMD-CDS (non-electrostatic) energy       (kcal/mol) =      -1.82
 (included in total energy above)
 DoSCS=F DFT=T ScalE2(SS,OS)=  1.000000  1.000000
 ExpMin= 1.22D-01 ExpMax= 2.27D+03 ExpMxC= 3.41D+02 IAcc=3 IRadAn=         5 AccDes= 0.00D+00
 HarFok:  IExCor=  205 AccDes= 0.00D+00 IRadAn=         5 IDoV=-2 UseB2=F ITyADJ=14
 ICtDFT= 12500011 ScaDFX=  1.000000  1.000000  1.000000  1.000000
 GSVD:  LWork=        -825 too small for GESVD, short by        3500 words or        3500 for optimal perf.
 Range of M.O.s used for correlation:    26   475
 NBasis=   475 NAE=    91 NBE=    91 NFC=    25 NFV=     0
 NROrb=    450 NOA=    66 NOB=    66 NVA=   384 NVB=   384

 **** Warning!!: The largest alpha MO coefficient is  0.13407352D+02

 NEqPCM:  Using equilibrium solvation (IEInf=0, Eps=  24.8520, EpsInf=   1.8526)
 Orbital symmetries:
       Occupied  (A) (A) (A) (A) (A) (A) (A) (A) (A) (A) (A) (A)
                 (A) (A) (A) (A) (A) (A) (A) (A) (A) (A) (A) (A)
                 (A) (A) (A) (A) (A) (A) (A) (A) (A) (A) (A) (A)
                 (A) (A) (A) (A) (A) (A) (A) (A) (A) (A) (A) (A)
                 (A) (A) (A) (A) (A) (A) (A) (A) (A) (A) (A) (A)
                 (A) (A) (A) (A) (A) (A) (A) (A) (A) (A) (A) (A)
                 (A) (A) (A) (A) (A) (A) (A) (A) (A) (A) (A) (A)
                 (A) (A) (A) (A) (A) (A) (A)
       Virtual   (A) (A) (A) (A) (A) (A) (A) (A) (A) (A) (A) (A)
                 (A) (A) (A) (A) (A) (A) (A) (A) (A) (A) (A) (A)
                 (A) (A) (A) (A) (A) (A) (A) (A) (A) (A) (A) (A)
                 (A) (A) (A) (A) (A) (A) (A) (A) (A) (A) (A) (A)
                 (A) (A) (A) (A) (A) (A) (A) (A) (A) (A) (A) (A)
                 (A) (A) (A) (A) (A) (A) (A) (A) (A) (A) (A) (A)
                 (A) (A) (A) (A) (A) (A) (A) (A) (A) (A) (A) (A)
                 (A) (A) (A) (A) (A) (A) (A) (A) (A) (A) (A) (A)
                 (A) (A) (A) (A) (A) (A) (A) (A) (A) (A) (A) (A)
                 (A) (A) (A) (A) (A) (A) (A) (A) (A) (A) (A) (A)
                 (A) (A) (A) (A) (A) (A) (A) (A) (A) (A) (A) (A)
                 (A) (A) (A) (A) (A) (A) (A) (A) (A) (A) (A) (A)
                 (A) (A) (A) (A) (A) (A) (A) (A) (A) (A) (A) (A)
                 (A) (A) (A) (A) (A) (A) (A) (A) (A) (A) (A) (A)
                 (A) (A) (A) (A) (A) (A) (A) (A) (A) (A) (A) (A)
                 (A) (A) (A) (A) (A) (A) (A) (A) (A) (A) (A) (A)
                 (A) (A) (A) (A) (A) (A) (A) (A) (A) (A) (A) (A)
                 (A) (A) (A) (A) (A) (A) (A) (A) (A) (A) (A) (A)
                 (A) (A) (A) (A) (A) (A) (A) (A) (A) (A) (A) (A)
                 (A) (A) (A) (A) (A) (A) (A) (A) (A) (A) (A) (A)
                 (A) (A) (A) (A) (A) (A) (A) (A) (A) (A) (A) (A)
                 (A) (A) (A) (A) (A) (A) (A) (A) (A) (A) (A) (A)
                 (A) (A) (A) (A) (A) (A) (A) (A) (A) (A) (A) (A)
                 (A) (A) (A) (A) (A) (A) (A) (A) (A) (A) (A) (A)
                 (A) (A) (A) (A) (A) (A) (A) (A) (A) (A) (A) (A)
                 (A) (A) (A) (A) (A) (A) (A) (A) (A) (A) (A) (A)
                 (A) (A) (A) (A) (A) (A) (A) (A) (A) (A) (A) (A)
                 (A) (A) (A) (A) (A) (A) (A) (A) (A) (A) (A) (A)
                 (A) (A) (A) (A) (A) (A) (A) (A) (A) (A) (A) (A)
                 (A) (A) (A) (A) (A) (A) (A) (A) (A) (A) (A) (A)
                 (A) (A) (A) (A) (A) (A) (A) (A) (A) (A) (A) (A)
                 (A) (A) (A) (A) (A) (A) (A) (A) (A) (A) (A) (A)
    12 initial guesses have been made.
 Convergence on wavefunction:    0.000001000000000
 Iteration     1 Dimension    12 NMult     0 NNew     12
 CISAX will form    12 AO SS matrices at one time.
 New state      2 was old state      3
 New state      3 was old state      2
 Iteration     2 Dimension    18 NMult    12 NNew      6
 Iteration     3 Dimension    24 NMult    18 NNew      6
 Iteration     4 Dimension    30 NMult    24 NNew      6
 Iteration     5 Dimension    36 NMult    30 NNew      6
 Iteration     6 Dimension    42 NMult    36 NNew      6
 Iteration     7 Dimension    48 NMult    42 NNew      6
 Iteration     8 Dimension    54 NMult    48 NNew      6
 Iteration     9 Dimension    60 NMult    54 NNew      6
 Iteration    10 Dimension    66 NMult    60 NNew      6
 Iteration    11 Dimension    70 NMult    66 NNew      4
 Iteration    12 Dimension    74 NMult    70 NNew      4
 Iteration    13 Dimension    78 NMult    74 NNew      4
 Iteration    14 Dimension    80 NMult    78 NNew      2
 Iteration    15 Dimension    82 NMult    80 NNew      2
 Iteration    16 Dimension    84 NMult    82 NNew      2
 Iteration    17 Dimension    86 NMult    84 NNew      2
 Iteration    18 Dimension    88 NMult    86 NNew      2
 PCM Corrected Linear-Response:
 The state of interest is root number   1
 Excitation energy =    3.0185 eV, Total energy =  -1090.58962572    
 Recompute the excitation energies using the linear response reaction field.
 Convergence on wavefunction:    0.000001000000000
 Iteration     1 Dimension     3 NMult     0 NNew      3
 Iteration     2 Dimension     9 NMult     3 NNew      6
 Iteration     3 Dimension    15 NMult     9 NNew      6
 Iteration     4 Dimension    21 NMult    15 NNew      6
 Iteration     5 Dimension    27 NMult    21 NNew      6
 Iteration     6 Dimension    33 NMult    27 NNew      6
 Iteration     7 Dimension    39 NMult    33 NNew      6
 Iteration     8 Dimension    45 NMult    39 NNew      6
 Iteration     9 Dimension    51 NMult    45 NNew      6
 Iteration    10 Dimension    57 NMult    51 NNew      6
 Iteration    11 Dimension    63 NMult    57 NNew      6
 Iteration    12 Dimension    67 NMult    63 NNew      4
 Iteration    13 Dimension    71 NMult    67 NNew      4
 Iteration    14 Dimension    73 NMult    71 NNew      2
 Iteration    15 Dimension    75 NMult    73 NNew      2
 Iteration    16 Dimension    77 NMult    75 NNew      2
 Iteration    17 Dimension    79 NMult    77 NNew      2
 ***********************************************************************
 Excited states from <AA,BB:AA,BB> singles matrix:
 ***********************************************************************
 
 Ground to excited state transition densities written to RWF  633
 Ground to excited state transition electric dipole moments (Au):
       state          X           Y           Z        Dip. S.      Osc.
         1        -2.8404      0.6340     -0.1423      8.4902      0.5781
         2         0.0164     -0.6354     -0.0387      0.4055      0.0420
         3        -0.6051     -0.6564     -0.1232      0.8122      0.0904
 Ground to excited state transition velocity dipole moments (Au):
       state          X           Y           Z        Dip. S.      Osc.
         1         0.3081     -0.0792      0.0151      0.1014      0.6619
         2        -0.0046      0.1063      0.0059      0.0114      0.0488
         3         0.0966      0.1158      0.0234      0.0233      0.0930
 Ground to excited state transition magnetic dipole moments (Au):
       state          X           Y           Z
         1        -0.0586     -0.2363      0.0018
         2         0.1351      0.0881     -1.1162
         3         0.1884     -0.4919      1.2529
 Ground to excited state transition velocity quadrupole moments (Au):
       state          XX          YY          ZZ          XY          XZ          YZ
         1         0.5105     -0.2038      0.0063     -0.1513     -0.1470      0.0264
         2        -0.1549     -0.1136     -0.0127      0.4600      0.0213     -0.0530
         3         1.0905      0.0282     -0.0151     -0.6164     -0.0076     -0.1094
 <0|del|b> * <b|rxdel|0> + <0|del|b> * <b|delr+rdel|0>
 Rotatory Strengths (R) in cgs (10**-40 erg-esu-cm/Gauss)
       state          XX          YY          ZZ    R(velocity)    E-M Angle
         1        16.6998    -26.3040     14.4063      1.6007       89.49
         2         7.3934    -21.9769     24.5261      3.3142       88.96
         3       -87.1648    108.9602    -61.5516    -13.2521       92.59
 1/2[<0|r|b>*<b|rxdel|0> + (<0|rxdel|b>*<b|r|0>)*]
 Rotatory Strengths (R) in cgs (10**-40 erg-esu-cm/Gauss)
       state          XX          YY          ZZ     R(length)
         1      -117.6969    105.9306      0.1854     -3.8603
         2        -1.5651     39.5914    -30.5188      2.5025
         3        80.6064   -228.3273    109.1269    -12.8647
  1/2[<0|del|b>*<b|r|0> + (<0|r|b>*<b|del|0>)*] (Au)
       state          X           Y           Z        Dip. S.   Osc.(frdel)
         1        -0.8750     -0.0502     -0.0021      0.9274      0.6183
         2        -0.0001     -0.0675     -0.0002      0.0678      0.0452
         3        -0.0585     -0.0760     -0.0029      0.1374      0.0916

 Excitation energies and oscillator strengths:
 
 Excited State   1:      Singlet-A      2.7793 eV  446.10 nm  f=0.5781  <S**2>=0.000
      91 -> 92         0.70263
 This state for optimization and/or second-order correction.
 Total Energy, E(TD-HF/TD-DFT) =  -1090.59841835    
 Copying the excited state density for this state as the 1-particle RhoCI density.
 
 Excited State   2:      Singlet-A      4.2236 eV  293.55 nm  f=0.0420  <S**2>=0.000
      88 -> 92        -0.35259
      89 -> 92        -0.13426
      91 -> 93         0.56301
      91 -> 94         0.12229
 
 Excited State   3:      Singlet-A      4.5433 eV  272.89 nm  f=0.0904  <S**2>=0.000
      85 -> 92        -0.21562
      86 -> 92         0.21563
      89 -> 92         0.36650
      90 -> 92        -0.16842
      91 -> 93         0.22896
      91 -> 94        -0.37421
 SavETr:  write IOETrn=   770 NScale= 10 NData=  16 NLR=1 NState=    3 LETran=      64.
 NEqPCM:  Using equilibrium solvation (IEInf=0, Eps=  24.8520, EpsInf=   1.8526)
          Differentiating once with respect to electric field.
                with respect to dipole field.
          Electric field/nuclear overlap derivatives assumed to be zero.
          There are     1 degrees of freedom in the 1st order CPHF.  IDoFFX=0 NUNeed=     1.
 LinEq1:  Iter=  0 NonCon=     1 RMS=2.59D-03 Max=1.58D-01 NDo=     1
 AX will form     1 AO Fock derivatives at one time.
 LinEq1:  Iter=  1 NonCon=     1 RMS=9.59D-04 Max=5.26D-02 NDo=     1
 LinEq1:  Iter=  2 NonCon=     1 RMS=4.78D-04 Max=4.62D-02 NDo=     1
 LinEq1:  Iter=  3 NonCon=     1 RMS=2.50D-04 Max=2.52D-02 NDo=     1
 LinEq1:  Iter=  4 NonCon=     1 RMS=1.22D-04 Max=6.39D-03 NDo=     1
 LinEq1:  Iter=  5 NonCon=     1 RMS=6.31D-05 Max=2.56D-03 NDo=     1
 LinEq1:  Iter=  6 NonCon=     1 RMS=3.17D-05 Max=1.24D-03 NDo=     1
 LinEq1:  Iter=  7 NonCon=     1 RMS=1.48D-05 Max=5.79D-04 NDo=     1
 LinEq1:  Iter=  8 NonCon=     1 RMS=6.02D-06 Max=3.81D-04 NDo=     1
 LinEq1:  Iter=  9 NonCon=     1 RMS=3.64D-06 Max=1.81D-04 NDo=     1
 LinEq1:  Iter= 10 NonCon=     1 RMS=1.51D-06 Max=9.36D-05 NDo=     1
 LinEq1:  Iter= 11 NonCon=     1 RMS=7.57D-07 Max=5.15D-05 NDo=     1
 LinEq1:  Iter= 12 NonCon=     1 RMS=3.34D-07 Max=1.47D-05 NDo=     1
 LinEq1:  Iter= 13 NonCon=     1 RMS=1.60D-07 Max=7.88D-06 NDo=     1
 LinEq1:  Iter= 14 NonCon=     1 RMS=7.32D-08 Max=4.51D-06 NDo=     1
 LinEq1:  Iter= 15 NonCon=     1 RMS=3.27D-08 Max=2.16D-06 NDo=     1
 LinEq1:  Iter= 16 NonCon=     1 RMS=1.42D-08 Max=6.47D-07 NDo=     1
 LinEq1:  Iter= 17 NonCon=     1 RMS=7.00D-09 Max=4.79D-07 NDo=     1
 LinEq1:  Iter= 18 NonCon=     1 RMS=2.06D-09 Max=8.88D-08 NDo=     1
 LinEq1:  Iter= 19 NonCon=     1 RMS=1.09D-09 Max=7.17D-08 NDo=     1
 LinEq1:  Iter= 20 NonCon=     1 RMS=4.06D-10 Max=1.57D-08 NDo=     1
 LinEq1:  Iter= 21 NonCon=     1 RMS=2.20D-10 Max=1.06D-08 NDo=     1
 LinEq1:  Iter= 22 NonCon=     1 RMS=8.76D-11 Max=3.58D-09 NDo=     1
 LinEq1:  Iter= 23 NonCon=     1 RMS=3.97D-11 Max=1.34D-09 NDo=     1
 LinEq1:  Iter= 24 NonCon=     0 RMS=1.72D-11 Max=6.14D-10 NDo=     1
 Linear equations converged to 1.000D-10 1.000D-09 after    24 iterations.
 PCM Corrected Linear-Response - Equilibrium solvation:
 Corrected transition energy               =    2.8960          eV
 Total energy after correction             = -1090.59412999     a.u.
 NEqPCM:  Using non-equilibrium solvation (IEInf=1, Eps=  24.8520, EpsInf=   1.8526)
 Inv3:  Mode=1 IEnd=    36247728.
 Iteration    1 A*A^-1 deviation from unit magnitude is 8.22D-15 for   3469.
 Iteration    1 A*A^-1 deviation from orthogonality  is 1.72D-15 for   1831   1601.
 Iteration    1 A^-1*A deviation from unit magnitude is 8.44D-15 for   3469.
 Iteration    1 A^-1*A deviation from orthogonality  is 2.17D-15 for   2369    895.
 End of Minotr F.D. properties file   721 does not exist.
 End of Minotr F.D. properties file   722 does not exist.
 End of Minotr F.D. properties file   788 does not exist.

 **********************************************************************

            Population analysis using the CI Density.

 **********************************************************************

 Orbital symmetries:
       Occupied  (A) (A) (A) (A) (A) (A) (A) (A) (A) (A) (A) (A)
                 (A) (A) (A) (A) (A) (A) (A) (A) (A) (A) (A) (A)
                 (A) (A) (A) (A) (A) (A) (A) (A) (A) (A) (A) (A)
                 (A) (A) (A) (A) (A) (A) (A) (A) (A) (A) (A) (A)
                 (A) (A) (A) (A) (A) (A) (A) (A) (A) (A) (A) (A)
                 (A) (A) (A) (A) (A) (A) (A) (A) (A) (A) (A) (A)
                 (A) (A) (A) (A) (A) (A) (A) (A) (A) (A) (A) (A)
                 (A) (A) (A) (A) (A) (A) (A)
       Virtual   (A) (A) (A) (A) (A) (A) (A) (A) (A) (A) (A) (A)
                 (A) (A) (A) (A) (A) (A) (A) (A) (A) (A) (A) (A)
                 (A) (A) (A) (A) (A) (A) (A) (A) (A) (A) (A) (A)
                 (A) (A) (A) (A) (A) (A) (A) (A) (A) (A) (A) (A)
                 (A) (A) (A) (A) (A) (A) (A) (A) (A) (A) (A) (A)
                 (A) (A) (A) (A) (A) (A) (A) (A) (A) (A) (A) (A)
                 (A) (A) (A) (A) (A) (A) (A) (A) (A) (A) (A) (A)
                 (A) (A) (A) (A) (A) (A) (A) (A) (A) (A) (A) (A)
                 (A) (A) (A) (A) (A) (A) (A) (A) (A) (A) (A) (A)
                 (A) (A) (A) (A) (A) (A) (A) (A) (A) (A) (A) (A)
                 (A) (A) (A) (A) (A) (A) (A) (A) (A) (A) (A) (A)
                 (A) (A) (A) (A) (A) (A) (A) (A) (A) (A) (A) (A)
                 (A) (A) (A) (A) (A) (A) (A) (A) (A) (A) (A) (A)
                 (A) (A) (A) (A) (A) (A) (A) (A) (A) (A) (A) (A)
                 (A) (A) (A) (A) (A) (A) (A) (A) (A) (A) (A) (A)
                 (A) (A) (A) (A) (A) (A) (A) (A) (A) (A) (A) (A)
                 (A) (A) (A) (A) (A) (A) (A) (A) (A) (A) (A) (A)
                 (A) (A) (A) (A) (A) (A) (A) (A) (A) (A) (A) (A)
                 (A) (A) (A) (A) (A) (A) (A) (A) (A) (A) (A) (A)
                 (A) (A) (A) (A) (A) (A) (A) (A) (A) (A) (A) (A)
                 (A) (A) (A) (A) (A) (A) (A) (A) (A) (A) (A) (A)
                 (A) (A) (A) (A) (A) (A) (A) (A) (A) (A) (A) (A)
                 (A) (A) (A) (A) (A) (A) (A) (A) (A) (A) (A) (A)
                 (A) (A) (A) (A) (A) (A) (A) (A) (A) (A) (A) (A)
                 (A) (A) (A) (A) (A) (A) (A) (A) (A) (A) (A) (A)
                 (A) (A) (A) (A) (A) (A) (A) (A) (A) (A) (A) (A)
                 (A) (A) (A) (A) (A) (A) (A) (A) (A) (A) (A) (A)
                 (A) (A) (A) (A) (A) (A) (A) (A) (A) (A) (A) (A)
                 (A) (A) (A) (A) (A) (A) (A) (A) (A) (A) (A) (A)
                 (A) (A) (A) (A) (A) (A) (A) (A) (A) (A) (A) (A)
                 (A) (A) (A) (A) (A) (A) (A) (A) (A) (A) (A) (A)
                 (A) (A) (A) (A) (A) (A) (A) (A) (A) (A) (A) (A)
 The electronic state is 1-A.
 Alpha  occ. eigenvalues --  -19.61852 -19.60740 -14.80734 -14.78909 -14.75241
 Alpha  occ. eigenvalues --  -10.67683 -10.66658 -10.62728 -10.58646 -10.58394
 Alpha  occ. eigenvalues --  -10.58359 -10.57908 -10.57826 -10.57793 -10.57568
 Alpha  occ. eigenvalues --  -10.57472 -10.57449 -10.56555 -10.56478 -10.56469
 Alpha  occ. eigenvalues --  -10.55518 -10.55469 -10.54063 -10.53956 -10.53356
 Alpha  occ. eigenvalues --   -1.16811  -1.14513  -1.06430  -1.03791  -1.02100
 Alpha  occ. eigenvalues --   -0.97857  -0.92198  -0.89713  -0.87473  -0.84875
 Alpha  occ. eigenvalues --   -0.84198  -0.81517  -0.80065  -0.78442  -0.75544
 Alpha  occ. eigenvalues --   -0.74391  -0.73053  -0.71144  -0.69704  -0.68576
 Alpha  occ. eigenvalues --   -0.65111  -0.65002  -0.64363  -0.60950  -0.59115
 Alpha  occ. eigenvalues --   -0.58485  -0.56958  -0.55980  -0.55237  -0.54563
 Alpha  occ. eigenvalues --   -0.54321  -0.53660  -0.52731  -0.51849  -0.51493
 Alpha  occ. eigenvalues --   -0.51199  -0.50882  -0.50091  -0.48854  -0.48416
 Alpha  occ. eigenvalues --   -0.47430  -0.47193  -0.46710  -0.46371  -0.45669
 Alpha  occ. eigenvalues --   -0.45106  -0.44638  -0.44081  -0.43037  -0.42579
 Alpha  occ. eigenvalues --   -0.41990  -0.40909  -0.40732  -0.40344  -0.39987
 Alpha  occ. eigenvalues --   -0.39650  -0.38909  -0.37629  -0.37376  -0.35531
 Alpha  occ. eigenvalues --   -0.34015  -0.33171  -0.31753  -0.31536  -0.28309
 Alpha  occ. eigenvalues --   -0.24027
 Alpha virt. eigenvalues --   -0.05859   0.00978   0.01801   0.05335   0.09419
 Alpha virt. eigenvalues --    0.10810   0.11396   0.12566   0.13499   0.13722
 Alpha virt. eigenvalues --    0.14011   0.14228   0.14495   0.14705   0.15071
 Alpha virt. eigenvalues --    0.15143   0.16237   0.16879   0.17443   0.18348
 Alpha virt. eigenvalues --    0.18561   0.18758   0.19473   0.19613   0.19860
 Alpha virt. eigenvalues --    0.20810   0.20998   0.21272   0.21767   0.22345
 Alpha virt. eigenvalues --    0.22822   0.23262   0.24073   0.24465   0.24733
 Alpha virt. eigenvalues --    0.26820   0.26971   0.28051   0.28605   0.29068
 Alpha virt. eigenvalues --    0.29212   0.29530   0.29763   0.29812   0.30529
 Alpha virt. eigenvalues --    0.30935   0.31419   0.31826   0.33713   0.33889
 Alpha virt. eigenvalues --    0.34342   0.35726   0.37464   0.38021   0.39864
 Alpha virt. eigenvalues --    0.40991   0.41781   0.43827   0.45477   0.45807
 Alpha virt. eigenvalues --    0.46128   0.46435   0.47319   0.47805   0.48688
 Alpha virt. eigenvalues --    0.48843   0.49265   0.49546   0.50210   0.50465
 Alpha virt. eigenvalues --    0.50616   0.50846   0.51271   0.51905   0.52459
 Alpha virt. eigenvalues --    0.53652   0.54066   0.54757   0.55365   0.56176
 Alpha virt. eigenvalues --    0.58218   0.58508   0.59922   0.60354   0.61324
 Alpha virt. eigenvalues --    0.62148   0.62695   0.64346   0.65200   0.65965
 Alpha virt. eigenvalues --    0.66601   0.66764   0.67464   0.68496   0.69001
 Alpha virt. eigenvalues --    0.69262   0.69555   0.69915   0.70057   0.70387
 Alpha virt. eigenvalues --    0.70747   0.70923   0.71123   0.71716   0.71761
 Alpha virt. eigenvalues --    0.71953   0.72289   0.72802   0.73161   0.73455
 Alpha virt. eigenvalues --    0.73869   0.73938   0.74103   0.74223   0.74568
 Alpha virt. eigenvalues --    0.74842   0.75407   0.75662   0.75689   0.76151
 Alpha virt. eigenvalues --    0.76226   0.76886   0.77430   0.77686   0.78165
 Alpha virt. eigenvalues --    0.78317   0.78791   0.79015   0.79223   0.79779
 Alpha virt. eigenvalues --    0.80311   0.81062   0.81991   0.83430   0.84312
 Alpha virt. eigenvalues --    0.84719   0.86895   0.87213   0.87430   0.87956
 Alpha virt. eigenvalues --    0.89301   0.90036   0.90761   0.94449   0.94740
 Alpha virt. eigenvalues --    0.95240   0.95852   0.96729   1.00741   1.01249
 Alpha virt. eigenvalues --    1.03434   1.03952   1.06446   1.06844   1.07244
 Alpha virt. eigenvalues --    1.07610   1.07804   1.11194   1.11420   1.13216
 Alpha virt. eigenvalues --    1.14006   1.15451   1.15729   1.16636   1.18442
 Alpha virt. eigenvalues --    1.19914   1.21118   1.22890   1.23335   1.24241
 Alpha virt. eigenvalues --    1.25184   1.25716   1.26000   1.26596   1.28021
 Alpha virt. eigenvalues --    1.28935   1.29679   1.30147   1.30711   1.31385
 Alpha virt. eigenvalues --    1.33051   1.33822   1.36381   1.36639   1.37179
 Alpha virt. eigenvalues --    1.37411   1.38135   1.38799   1.40192   1.42514
 Alpha virt. eigenvalues --    1.42718   1.43690   1.44638   1.45646   1.47226
 Alpha virt. eigenvalues --    1.48413   1.51580   1.52721   1.53713   1.54460
 Alpha virt. eigenvalues --    1.55551   1.56016   1.56690   1.57392   1.58279
 Alpha virt. eigenvalues --    1.58857   1.59474   1.59962   1.62516   1.63885
 Alpha virt. eigenvalues --    1.66729   1.69912   1.70679   1.71365   1.72838
 Alpha virt. eigenvalues --    1.74099   1.74308   1.74831   1.75313   1.76877
 Alpha virt. eigenvalues --    1.77132   1.77810   1.78509   1.78844   1.79628
 Alpha virt. eigenvalues --    1.79700   1.80606   1.81070   1.81543   1.82012
 Alpha virt. eigenvalues --    1.82173   1.82237   1.82425   1.82529   1.83632
 Alpha virt. eigenvalues --    1.84415   1.84878   1.85206   1.85348   1.86238
 Alpha virt. eigenvalues --    1.86688   1.87474   1.88838   1.89110   1.89448
 Alpha virt. eigenvalues --    1.90428   1.90596   1.91165   1.91682   1.91928
 Alpha virt. eigenvalues --    1.92497   1.93615   1.93956   1.94170   1.95674
 Alpha virt. eigenvalues --    1.96243   1.96740   1.97003   1.97921   1.98266
 Alpha virt. eigenvalues --    1.98728   1.99039   1.99736   2.00849   2.01132
 Alpha virt. eigenvalues --    2.01401   2.02598   2.04540   2.05711   2.05961
 Alpha virt. eigenvalues --    2.06309   2.07523   2.08483   2.09773   2.09895
 Alpha virt. eigenvalues --    2.11673   2.12347   2.13091   2.13862   2.15093
 Alpha virt. eigenvalues --    2.16566   2.16947   2.17757   2.19134   2.20362
 Alpha virt. eigenvalues --    2.21927   2.23610   2.24691   2.24865   2.26154
 Alpha virt. eigenvalues --    2.26575   2.26884   2.28032   2.28462   2.30294
 Alpha virt. eigenvalues --    2.30611   2.33218   2.33329   2.34360   2.35114
 Alpha virt. eigenvalues --    2.35161   2.38157   2.39169   2.39603   2.40667
 Alpha virt. eigenvalues --    2.42785   2.43714   2.43857   2.44811   2.46127
 Alpha virt. eigenvalues --    2.47092   2.47362   2.47998   2.50291   2.51478
 Alpha virt. eigenvalues --    2.52777   2.53134   2.53522   2.55649   2.56182
 Alpha virt. eigenvalues --    2.58097   2.60123   2.60435   2.60716   2.62601
 Alpha virt. eigenvalues --    2.62953   2.64106   2.65523   2.65822   2.66291
 Alpha virt. eigenvalues --    2.67962   2.69064   2.71141   2.71565   2.72897
 Alpha virt. eigenvalues --    2.74271   2.76143   2.76554   2.77206   2.77666
 Alpha virt. eigenvalues --    2.78192   2.79092   2.80804   2.84628   2.85403
 Alpha virt. eigenvalues --    2.85922   2.86679   2.87493   2.89110   2.89392
 Alpha virt. eigenvalues --    2.90175   2.90715   2.91142   2.92015   2.92467
 Alpha virt. eigenvalues --    2.94471   2.95561   2.97202   2.98149   3.00953
 Alpha virt. eigenvalues --    3.02089   3.02304   3.03312   3.04077   3.07364
 Alpha virt. eigenvalues --    3.09758   3.10608   3.11053   3.12371   3.13562
 Alpha virt. eigenvalues --    3.15328   3.17611   3.17650   3.20096   3.21672
 Alpha virt. eigenvalues --    3.24765   3.36782   3.41791   3.46584   3.52461
 Alpha virt. eigenvalues --    3.56690   3.66093   3.69827   3.73815
          Condensed to atoms (all electrons):
               1          2          3          4          5          6
     1  C    4.515164   0.402895   0.402227   0.393496  -0.000002  -0.000000
     2  H    0.402895   0.610797  -0.017610  -0.032498  -0.000003  -0.000000
     3  H    0.402227  -0.017610   0.608100  -0.030924  -0.000010  -0.000000
     4  H    0.393496  -0.032498  -0.030924   0.678356   0.000002   0.000000
     5  C   -0.000002  -0.000003  -0.000010   0.000002   5.537667   0.268272
     6  C   -0.000000  -0.000000  -0.000000   0.000000   0.268272   5.307713
     7  C    0.000000   0.000000   0.000000  -0.000000  -0.006216   0.269409
     8  C   -0.000000   0.000000   0.000000  -0.000000  -0.000137   0.297269
     9  C    0.000041   0.000002   0.000012  -0.000005   0.161471   0.021141
    10  C    0.000001   0.000011   0.000018  -0.000003   0.263102   0.019112
    11  H    0.000102  -0.000002   0.000013   0.000004  -0.064493   0.014160
    12  C    0.000001   0.000000   0.000001  -0.000000  -0.001594  -0.110323
    13  H    0.000000   0.000000   0.000000   0.000000   0.013696  -0.001715
    14  C    0.000000   0.000000   0.000000  -0.000000   0.015953  -0.075368
    15  N    0.000000  -0.000000  -0.000000   0.000000  -0.001506  -0.017582
    16  C   -0.000000  -0.000000  -0.000000   0.000000  -0.105451   0.027727
    17  H   -0.000000   0.000000   0.000000  -0.000000  -0.001351   0.012317
    18  C    0.000001   0.000001   0.000001  -0.000000   0.096975  -0.136544
    19  H   -0.000000   0.000000  -0.000000  -0.000000   0.015035  -0.000726
    20  N   -0.000018   0.000042   0.000162  -0.000060  -0.118893   0.003880
    21  H   -0.002256  -0.000594  -0.001203   0.000851  -0.028795   0.001153
    22  C    0.000000  -0.000000  -0.000000   0.000000  -0.136042   0.038541
    23  H   -0.000000  -0.000000  -0.000000   0.000000  -0.001164   0.013902
    24  C    0.000000   0.000000   0.000000  -0.000000   0.010154  -0.061663
    25  O   -0.000000   0.000000   0.000000  -0.000000  -0.000083   0.001015
    26  O    0.000000   0.000000  -0.000000  -0.000000  -0.000096   0.000577
    27  C    0.011028  -0.000431   0.000773  -0.000632   0.008851  -0.000186
    28  H   -0.000185   0.000010  -0.000052   0.000024  -0.000544   0.000023
    29  H   -0.000218   0.000016   0.000002  -0.000031  -0.000533   0.000013
    30  N    0.346451  -0.027975  -0.027373  -0.039649   0.000765   0.000007
    31  C   -0.054402   0.007730  -0.003606  -0.008977   0.000191   0.000002
    32  H   -0.002896  -0.000532  -0.002058   0.011598   0.000034   0.000000
    33  H   -0.005838   0.000518   0.006161  -0.003283  -0.000107  -0.000002
    34  C   -0.047857  -0.003477   0.007243  -0.006275  -0.000050  -0.000001
    35  H    0.006484   0.000518  -0.000396  -0.000655  -0.000188  -0.000009
    36  H   -0.004714   0.004723   0.000430  -0.002795  -0.000013  -0.000000
    37  H   -0.003009  -0.002732  -0.000419   0.013472   0.000008   0.000000
    38  C   -0.000000   0.000000   0.000000  -0.000000   0.000097  -0.000134
    39  H   -0.000000  -0.000000   0.000000   0.000000   0.000002  -0.000201
    40  H    0.000000   0.000000  -0.000000  -0.000000   0.000004  -0.000178
    41  C    0.000000  -0.000000  -0.000000  -0.000000  -0.000005   0.000208
    42  H    0.000000   0.000000  -0.000000  -0.000000   0.000002  -0.000021
    43  H   -0.000000  -0.000000   0.000000   0.000000   0.000003  -0.000024
    44  C   -0.000000  -0.000000  -0.000000   0.000000   0.000000   0.000001
    45  H   -0.000000  -0.000000   0.000000   0.000000  -0.000000   0.000000
    46  H    0.000000   0.000000   0.000000   0.000000  -0.000000  -0.000000
    47  C    0.000000   0.000000   0.000000   0.000000  -0.000000   0.000000
    48  H    0.000000   0.000000   0.000000   0.000000  -0.000000  -0.000000
    49  H    0.000000  -0.000000   0.000000   0.000000   0.000000   0.000000
    50  H    0.000000   0.000000  -0.000000   0.000000  -0.000000   0.000000
               7          8          9         10         11         12
     1  C    0.000000  -0.000000   0.000041   0.000001   0.000102   0.000001
     2  H    0.000000   0.000000   0.000002   0.000011  -0.000002   0.000000
     3  H    0.000000   0.000000   0.000012   0.000018   0.000013   0.000001
     4  H   -0.000000  -0.000000  -0.000005  -0.000003   0.000004  -0.000000
     5  C   -0.006216  -0.000137   0.161471   0.263102  -0.064493  -0.001594
     6  C    0.269409   0.297269   0.021141   0.019112   0.014160  -0.110323
     7  C    5.949370  -0.080836  -0.166279   0.024089  -0.000132   0.094702
     8  C   -0.080836   5.873364   0.026634  -0.142906  -0.001297  -0.003286
     9  C   -0.166279   0.026634   5.370617  -0.148318  -0.023279   0.168047
    10  C    0.024089  -0.142906  -0.148318   5.428533   0.457505   0.015786
    11  H   -0.000132  -0.001297  -0.023279   0.457505   0.629367  -0.000242
    12  C    0.094702  -0.003286   0.168047   0.015786  -0.000242   5.280021
    13  H    0.015317   0.000019  -0.068227  -0.000027   0.000011   0.469141
    14  C   -0.045483   0.239638   0.000263  -0.002805   0.000034  -0.000365
    15  N   -0.125575  -0.129090  -0.000044  -0.000031  -0.000000   0.000025
    16  C    0.153409   0.013635   0.118061  -0.002971  -0.000056   0.231797
    17  H   -0.085566  -0.000368   0.014339   0.000020   0.000000  -0.065796
    18  C   -0.003266   0.087143   0.019279   0.214819  -0.056736  -0.000319
    19  H    0.000056   0.014374  -0.000443  -0.068271  -0.011610   0.000003
    20  N   -0.000664   0.000008   0.501343   0.000404  -0.004031  -0.089232
    21  H   -0.000188  -0.000010  -0.004932   0.003628   0.005563   0.008190
    22  C    0.014986   0.184092  -0.002677   0.084745   0.013454   0.000157
    23  H   -0.000476  -0.086263   0.000049   0.013945  -0.000219   0.000000
    24  C    0.202646  -0.038308  -0.000630   0.000103   0.000001   0.020351
    25  O    0.000270  -0.149548   0.000001  -0.000052   0.000000  -0.000000
    26  O   -0.151049   0.000316  -0.000036   0.000001  -0.000000   0.002237
    27  C    0.000070   0.000005  -0.049212   0.000751  -0.000031   0.000561
    28  H   -0.000046  -0.000000  -0.014131  -0.000068  -0.000054   0.006250
    29  H   -0.000024  -0.000000  -0.005577  -0.000031   0.000021   0.002814
    30  N   -0.000000  -0.000000  -0.001515  -0.001361   0.001425  -0.000119
    31  C    0.000005  -0.000000   0.010390  -0.000022   0.000304   0.000448
    32  H   -0.000000   0.000000  -0.000368  -0.000017   0.000006  -0.000024
    33  H   -0.000000   0.000000   0.000176   0.000065  -0.000028  -0.000066
    34  C   -0.000000   0.000000  -0.000182   0.000059  -0.000069  -0.000011
    35  H    0.000000   0.000000   0.000114   0.000162  -0.000108   0.000024
    36  H    0.000000   0.000000   0.000026   0.000023   0.000015   0.000002
    37  H   -0.000000  -0.000000  -0.000034  -0.000008   0.000008  -0.000005
    38  C    0.009992   0.009485  -0.000000   0.000000   0.000000   0.000001
    39  H    0.003950  -0.000359   0.000000  -0.000000   0.000000  -0.000003
    40  H   -0.000424   0.003959  -0.000000   0.000000  -0.000000   0.000000
    41  C   -0.001448  -0.001297  -0.000000  -0.000000  -0.000000   0.000000
    42  H   -0.000066   0.000080   0.000000  -0.000000   0.000000  -0.000001
    43  H    0.000108  -0.000236  -0.000000   0.000000   0.000000  -0.000000
    44  C   -0.000001  -0.000007   0.000000  -0.000000   0.000000   0.000000
    45  H    0.000000  -0.000003   0.000000  -0.000000  -0.000000   0.000000
    46  H   -0.000003   0.000000  -0.000000   0.000000  -0.000000   0.000000
    47  C   -0.000000  -0.000000  -0.000000  -0.000000  -0.000000  -0.000000
    48  H    0.000000   0.000000   0.000000   0.000000   0.000000   0.000000
    49  H   -0.000000  -0.000000  -0.000000  -0.000000  -0.000000   0.000000
    50  H   -0.000000  -0.000000  -0.000000  -0.000000  -0.000000   0.000000
              13         14         15         16         17         18
     1  C    0.000000   0.000000   0.000000  -0.000000  -0.000000   0.000001
     2  H    0.000000   0.000000  -0.000000  -0.000000   0.000000   0.000001
     3  H    0.000000   0.000000  -0.000000  -0.000000   0.000000   0.000001
     4  H    0.000000  -0.000000   0.000000   0.000000  -0.000000  -0.000000
     5  C    0.013696   0.015953  -0.001506  -0.105451  -0.001351   0.096975
     6  C   -0.001715  -0.075368  -0.017582   0.027727   0.012317  -0.136544
     7  C    0.015317  -0.045483  -0.125575   0.153409  -0.085566  -0.003266
     8  C    0.000019   0.239638  -0.129090   0.013635  -0.000368   0.087143
     9  C   -0.068227   0.000263  -0.000044   0.118061   0.014339   0.019279
    10  C   -0.000027  -0.002805  -0.000031  -0.002971   0.000020   0.214819
    11  H    0.000011   0.000034  -0.000000  -0.000056   0.000000  -0.056736
    12  C    0.469141  -0.000365   0.000025   0.231797  -0.065796  -0.000319
    13  H    0.600950   0.000001   0.000000  -0.071257  -0.010969   0.000000
    14  C    0.000001   4.752256   0.290889   0.001424   0.000071   0.023348
    15  N    0.000000   0.290889   7.074969   0.010305   0.001120   0.000020
    16  C   -0.071257   0.001424   0.010305   5.229033   0.474189   0.000167
    17  H   -0.010969   0.000071   0.001120   0.474189   0.614253   0.000001
    18  C    0.000000   0.023348   0.000020   0.000167   0.000001   5.132648
    19  H   -0.000000  -0.000443   0.000001  -0.000001   0.000000   0.457974
    20  N   -0.016051   0.000001  -0.000000   0.007923  -0.000085   0.000868
    21  H   -0.000146   0.000000   0.000000   0.000149   0.000005  -0.001296
    22  C    0.000001  -0.082076   0.010650  -0.000463   0.000001   0.255367
    23  H    0.000000  -0.013847   0.001056   0.000001  -0.000000  -0.070112
    24  C   -0.000385  -0.042478   0.332830  -0.071657  -0.013029  -0.000306
    25  O   -0.000000   0.738927  -0.114144   0.000008   0.000000   0.001856
    26  O   -0.000024  -0.000827  -0.110737   0.021036   0.015465  -0.000000
    27  C    0.008466  -0.000000   0.000000   0.000341  -0.000026   0.000012
    28  H   -0.000803  -0.000000   0.000000   0.001011   0.000016   0.000001
    29  H   -0.000979   0.000000   0.000000   0.000097   0.000011   0.000003
    30  N   -0.000009  -0.000000   0.000000   0.000001  -0.000000  -0.000028
    31  C    0.000652   0.000000   0.000000  -0.000055  -0.000000   0.000002
    32  H   -0.000001  -0.000000   0.000000   0.000001  -0.000000  -0.000000
    33  H   -0.000010   0.000000  -0.000000  -0.000001   0.000000   0.000002
    34  C   -0.000011   0.000000  -0.000000   0.000001   0.000000   0.000002
    35  H    0.000003   0.000000  -0.000000   0.000001  -0.000000   0.000003
    36  H    0.000000   0.000000  -0.000000  -0.000000   0.000000   0.000002
    37  H   -0.000001  -0.000000   0.000000   0.000000  -0.000000  -0.000000
    38  C   -0.000000  -0.023439   0.220253  -0.000424  -0.000050   0.000001
    39  H   -0.000000   0.005888  -0.024193   0.000006  -0.000003   0.000000
    40  H    0.000000  -0.009538  -0.024293   0.000006  -0.000001  -0.000003
    41  C    0.000000  -0.004384  -0.031648   0.000027   0.000007   0.000000
    42  H    0.000000  -0.001111  -0.010282  -0.000010  -0.000013  -0.000000
    43  H    0.000000   0.006791  -0.009874  -0.000004   0.000000  -0.000001
    44  C   -0.000000  -0.000139   0.005250  -0.000000   0.000000   0.000000
    45  H    0.000000  -0.000109   0.000103   0.000000   0.000000   0.000000
    46  H    0.000000   0.000060   0.000097   0.000000  -0.000000   0.000000
    47  C    0.000000  -0.000013  -0.000175   0.000000   0.000000  -0.000000
    48  H   -0.000000   0.000000   0.000004  -0.000000   0.000000   0.000000
    49  H   -0.000000  -0.000001   0.000001  -0.000000   0.000000   0.000000
    50  H   -0.000000  -0.000002   0.000001  -0.000000  -0.000000   0.000000
              19         20         21         22         23         24
     1  C   -0.000000  -0.000018  -0.002256   0.000000  -0.000000   0.000000
     2  H    0.000000   0.000042  -0.000594  -0.000000  -0.000000   0.000000
     3  H   -0.000000   0.000162  -0.001203  -0.000000  -0.000000   0.000000
     4  H   -0.000000  -0.000060   0.000851   0.000000   0.000000  -0.000000
     5  C    0.015035  -0.118893  -0.028795  -0.136042  -0.001164   0.010154
     6  C   -0.000726   0.003880   0.001153   0.038541   0.013902  -0.061663
     7  C    0.000056  -0.000664  -0.000188   0.014986  -0.000476   0.202646
     8  C    0.014374   0.000008  -0.000010   0.184092  -0.086263  -0.038308
     9  C   -0.000443   0.501343  -0.004932  -0.002677   0.000049  -0.000630
    10  C   -0.068271   0.000404   0.003628   0.084745   0.013945   0.000103
    11  H   -0.011610  -0.004031   0.005563   0.013454  -0.000219   0.000001
    12  C    0.000003  -0.089232   0.008190   0.000157   0.000000   0.020351
    13  H   -0.000000  -0.016051  -0.000146   0.000001   0.000000  -0.000385
    14  C   -0.000443   0.000001   0.000000  -0.082076  -0.013847  -0.042478
    15  N    0.000001  -0.000000   0.000000   0.010650   0.001056   0.332830
    16  C   -0.000001   0.007923   0.000149  -0.000463   0.000001  -0.071657
    17  H    0.000000  -0.000085   0.000005   0.000001  -0.000000  -0.013029
    18  C    0.457974   0.000868  -0.001296   0.255367  -0.070112  -0.000306
    19  H    0.634206   0.000005   0.000034  -0.074843  -0.011226   0.000001
    20  N    0.000005   6.327129   0.348040  -0.000062  -0.000000   0.000017
    21  H    0.000034   0.348040   0.495312   0.000051   0.000000  -0.000000
    22  C   -0.074843  -0.000062   0.000051   5.267783   0.470831   0.001340
    23  H   -0.011226  -0.000000   0.000000   0.470831   0.642523   0.000062
    24  C    0.000001   0.000017  -0.000000   0.001340   0.000062   4.688743
    25  O   -0.000015  -0.000000   0.000000   0.018566   0.013813  -0.000725
    26  O    0.000000  -0.000000  -0.000000   0.000008   0.000000   0.746061
    27  C   -0.000000   0.309233  -0.056633   0.000001   0.000000   0.000000
    28  H    0.000000  -0.016603   0.005416  -0.000000   0.000000   0.000001
    29  H   -0.000000  -0.034569   0.001190  -0.000000  -0.000000  -0.000000
    30  N   -0.000000  -0.018292   0.061146   0.000000   0.000000  -0.000000
    31  C   -0.000000  -0.045299  -0.020862   0.000000  -0.000000  -0.000000
    32  H   -0.000000   0.004562   0.003526   0.000000   0.000000  -0.000000
    33  H    0.000000  -0.001667  -0.002035  -0.000000  -0.000000  -0.000000
    34  C   -0.000000  -0.002119  -0.001762  -0.000000  -0.000000  -0.000000
    35  H    0.000000   0.002047  -0.002706  -0.000000  -0.000000   0.000000
    36  H   -0.000000   0.000120  -0.001080  -0.000000  -0.000000   0.000000
    37  H   -0.000000   0.000136   0.001445   0.000000   0.000000  -0.000000
    38  C   -0.000000   0.000000   0.000000  -0.000414  -0.000046  -0.025686
    39  H    0.000000   0.000000   0.000000   0.000006  -0.000001  -0.009589
    40  H   -0.000000  -0.000000   0.000000  -0.000005  -0.000010   0.006205
    41  C    0.000000   0.000000  -0.000000   0.000024   0.000008  -0.005529
    42  H   -0.000000  -0.000000   0.000000  -0.000003   0.000000   0.007273
    43  H   -0.000000  -0.000000  -0.000000  -0.000003  -0.000014  -0.001144
    44  C   -0.000000  -0.000000   0.000000  -0.000000   0.000000  -0.000046
    45  H    0.000000   0.000000   0.000000   0.000000  -0.000000   0.000066
    46  H    0.000000  -0.000000  -0.000000   0.000000   0.000000  -0.000108
    47  C    0.000000  -0.000000  -0.000000   0.000000   0.000000  -0.000017
    48  H   -0.000000   0.000000   0.000000   0.000000   0.000000   0.000000
    49  H   -0.000000   0.000000  -0.000000  -0.000000  -0.000000  -0.000002
    50  H    0.000000   0.000000  -0.000000  -0.000000   0.000000  -0.000001
              25         26         27         28         29         30
     1  C   -0.000000   0.000000   0.011028  -0.000185  -0.000218   0.346451
     2  H    0.000000   0.000000  -0.000431   0.000010   0.000016  -0.027975
     3  H    0.000000  -0.000000   0.000773  -0.000052   0.000002  -0.027373
     4  H   -0.000000  -0.000000  -0.000632   0.000024  -0.000031  -0.039649
     5  C   -0.000083  -0.000096   0.008851  -0.000544  -0.000533   0.000765
     6  C    0.001015   0.000577  -0.000186   0.000023   0.000013   0.000007
     7  C    0.000270  -0.151049   0.000070  -0.000046  -0.000024  -0.000000
     8  C   -0.149548   0.000316   0.000005  -0.000000  -0.000000  -0.000000
     9  C    0.000001  -0.000036  -0.049212  -0.014131  -0.005577  -0.001515
    10  C   -0.000052   0.000001   0.000751  -0.000068  -0.000031  -0.001361
    11  H    0.000000  -0.000000  -0.000031  -0.000054   0.000021   0.001425
    12  C   -0.000000   0.002237   0.000561   0.006250   0.002814  -0.000119
    13  H   -0.000000  -0.000024   0.008466  -0.000803  -0.000979  -0.000009
    14  C    0.738927  -0.000827  -0.000000  -0.000000   0.000000  -0.000000
    15  N   -0.114144  -0.110737   0.000000   0.000000   0.000000   0.000000
    16  C    0.000008   0.021036   0.000341   0.001011   0.000097   0.000001
    17  H    0.000000   0.015465  -0.000026   0.000016   0.000011  -0.000000
    18  C    0.001856  -0.000000   0.000012   0.000001   0.000003  -0.000028
    19  H   -0.000015   0.000000  -0.000000   0.000000  -0.000000  -0.000000
    20  N   -0.000000  -0.000000   0.309233  -0.016603  -0.034569  -0.018292
    21  H    0.000000  -0.000000  -0.056633   0.005416   0.001190   0.061146
    22  C    0.018566   0.000008   0.000001  -0.000000  -0.000000   0.000000
    23  H    0.013813   0.000000   0.000000   0.000000  -0.000000   0.000000
    24  C   -0.000725   0.746061   0.000000   0.000001  -0.000000  -0.000000
    25  O    7.847709  -0.000023   0.000000   0.000000   0.000000  -0.000000
    26  O   -0.000023   7.810481   0.000000   0.000000  -0.000000  -0.000000
    27  C    0.000000   0.000000   4.690930   0.391465   0.379348  -0.078958
    28  H    0.000000   0.000000   0.391465   0.582697  -0.031554   0.004969
    29  H    0.000000  -0.000000   0.379348  -0.031554   0.611479  -0.007087
    30  N   -0.000000  -0.000000  -0.078958   0.004969  -0.007087   6.765655
    31  C   -0.000000   0.000000   0.367939  -0.016135  -0.007216   0.329366
    32  H    0.000000  -0.000000  -0.035521  -0.000413  -0.005791  -0.033632
    33  H   -0.000000  -0.000000  -0.016758  -0.011083   0.007054  -0.035382
    34  C    0.000000  -0.000000   0.003595   0.000039   0.002992   0.324170
    35  H   -0.000000   0.000000   0.015957   0.000286  -0.003371  -0.028236
    36  H    0.000000  -0.000000  -0.000080  -0.000002  -0.000216  -0.025941
    37  H   -0.000000   0.000000  -0.007373   0.000094   0.000351  -0.041840
    38  C    0.001932   0.001009  -0.000000   0.000000   0.000000  -0.000000
    39  H    0.000548   0.016514  -0.000000  -0.000000   0.000000  -0.000000
    40  H    0.018556   0.000512   0.000000   0.000000  -0.000000   0.000000
    41  C   -0.007572  -0.005990   0.000000   0.000000  -0.000000   0.000000
    42  H    0.000132   0.006840  -0.000000   0.000000  -0.000000   0.000000
    43  H    0.008591   0.000081  -0.000000  -0.000000   0.000000  -0.000000
    44  C   -0.000188  -0.000177  -0.000000  -0.000000   0.000000  -0.000000
    45  H    0.000055  -0.000007  -0.000000  -0.000000   0.000000  -0.000000
    46  H   -0.000008   0.000039   0.000000   0.000000  -0.000000   0.000000
    47  C    0.000001   0.000002   0.000000   0.000000  -0.000000   0.000000
    48  H   -0.000000  -0.000000  -0.000000  -0.000000   0.000000   0.000000
    49  H    0.000000  -0.000008  -0.000000  -0.000000   0.000000  -0.000000
    50  H   -0.000010   0.000000   0.000000   0.000000  -0.000000   0.000000
              31         32         33         34         35         36
     1  C   -0.054402  -0.002896  -0.005838  -0.047857   0.006484  -0.004714
     2  H    0.007730  -0.000532   0.000518  -0.003477   0.000518   0.004723
[...]
    15  N    0.000000   0.000000  -0.000000  -0.000000  -0.000000  -0.000000
    16  C   -0.000055   0.000001  -0.000001   0.000001   0.000001  -0.000000
    17  H   -0.000000  -0.000000   0.000000   0.000000  -0.000000   0.000000
    18  C    0.000002  -0.000000   0.000002   0.000002   0.000003   0.000002
    19  H   -0.000000  -0.000000   0.000000  -0.000000   0.000000  -0.000000
    20  N   -0.045299   0.004562  -0.001667  -0.002119   0.002047   0.000120
    21  H   -0.020862   0.003526  -0.002035  -0.001762  -0.002706  -0.001080
    22  C    0.000000   0.000000  -0.000000  -0.000000  -0.000000  -0.000000
    23  H   -0.000000   0.000000  -0.000000  -0.000000  -0.000000  -0.000000
    24  C   -0.000000  -0.000000  -0.000000  -0.000000   0.000000   0.000000
    25  O   -0.000000   0.000000  -0.000000   0.000000  -0.000000   0.000000
    26  O    0.000000  -0.000000  -0.000000  -0.000000   0.000000  -0.000000
    27  C    0.367939  -0.035521  -0.016758   0.003595   0.015957  -0.000080
    28  H   -0.016135  -0.000413  -0.011083   0.000039   0.000286  -0.000002
    29  H   -0.007216  -0.005791   0.007054   0.002992  -0.003371  -0.000216
    30  N    0.329366  -0.033632  -0.035382   0.324170  -0.028236  -0.025941
    31  C    4.665079   0.384967   0.396131  -0.060249  -0.013774   0.008367
    32  H    0.384967   0.651420  -0.026715  -0.007603  -0.003015  -0.000163
    33  H    0.396131  -0.026715   0.619722   0.008309   0.000109  -0.000389
    34  C   -0.060249  -0.007603   0.008309   4.554339   0.405478   0.400533
    35  H   -0.013774  -0.003015   0.000109   0.405478   0.607075  -0.015433
    36  H    0.008367  -0.000163  -0.000389   0.400533  -0.015433   0.604607
    37  H   -0.001464   0.012898  -0.000495   0.390716  -0.033277  -0.029058
    38  C   -0.000000  -0.000000   0.000000   0.000000  -0.000000   0.000000
    39  H    0.000000   0.000000   0.000000   0.000000  -0.000000   0.000000
    40  H   -0.000000  -0.000000  -0.000000  -0.000000   0.000000  -0.000000
    41  C   -0.000000  -0.000000  -0.000000  -0.000000   0.000000  -0.000000
    42  H   -0.000000  -0.000000  -0.000000  -0.000000   0.000000   0.000000
    43  H    0.000000   0.000000   0.000000   0.000000  -0.000000   0.000000
    44  C    0.000000   0.000000   0.000000   0.000000  -0.000000   0.000000
    45  H    0.000000   0.000000   0.000000   0.000000  -0.000000   0.000000
    46  H   -0.000000  -0.000000  -0.000000  -0.000000   0.000000  -0.000000
    47  C   -0.000000  -0.000000  -0.000000  -0.000000   0.000000  -0.000000
    48  H    0.000000   0.000000   0.000000  -0.000000  -0.000000   0.000000
    49  H    0.000000   0.000000   0.000000   0.000000  -0.000000  -0.000000
    50  H   -0.000000  -0.000000  -0.000000  -0.000000   0.000000  -0.000000
              37         38         39         40         41         42
     1  C   -0.003009  -0.000000  -0.000000   0.000000   0.000000   0.000000
     2  H   -0.002732   0.000000  -0.000000   0.000000  -0.000000   0.000000
     3  H   -0.000419   0.000000   0.000000  -0.000000  -0.000000  -0.000000
     4  H    0.013472  -0.000000   0.000000  -0.000000  -0.000000  -0.000000
     5  C    0.000008   0.000097   0.000002   0.000004  -0.000005   0.000002
     6  C    0.000000  -0.000134  -0.000201  -0.000178   0.000208  -0.000021
     7  C   -0.000000   0.009992   0.003950  -0.000424  -0.001448  -0.000066
     8  C   -0.000000   0.009485  -0.000359   0.003959  -0.001297   0.000080
     9  C   -0.000034  -0.000000   0.000000  -0.000000  -0.000000   0.000000
    10  C   -0.000008   0.000000  -0.000000   0.000000  -0.000000  -0.000000
    11  H    0.000008   0.000000   0.000000  -0.000000  -0.000000   0.000000
    12  C   -0.000005   0.000001  -0.000003   0.000000   0.000000  -0.000001
    13  H   -0.000001  -0.000000  -0.000000   0.000000   0.000000   0.000000
    14  C   -0.000000  -0.023439   0.005888  -0.009538  -0.004384  -0.001111
    15  N    0.000000   0.220253  -0.024193  -0.024293  -0.031648  -0.010282
    16  C    0.000000  -0.000424   0.000006   0.000006   0.000027  -0.000010
    17  H   -0.000000  -0.000050  -0.000003  -0.000001   0.000007  -0.000013
    18  C   -0.000000   0.000001   0.000000  -0.000003   0.000000  -0.000000
    19  H   -0.000000  -0.000000   0.000000  -0.000000   0.000000  -0.000000
    20  N    0.000136   0.000000   0.000000  -0.000000   0.000000  -0.000000
    21  H    0.001445   0.000000   0.000000   0.000000  -0.000000   0.000000
    22  C    0.000000  -0.000414   0.000006  -0.000005   0.000024  -0.000003
    23  H    0.000000  -0.000046  -0.000001  -0.000010   0.000008   0.000000
    24  C   -0.000000  -0.025686  -0.009589   0.006205  -0.005529   0.007273
    25  O   -0.000000   0.001932   0.000548   0.018556  -0.007572   0.000132
    26  O    0.000000   0.001009   0.016514   0.000512  -0.005990   0.006840
    27  C   -0.007373  -0.000000  -0.000000   0.000000   0.000000  -0.000000
    28  H    0.000094   0.000000  -0.000000   0.000000   0.000000   0.000000
    29  H    0.000351   0.000000   0.000000  -0.000000  -0.000000  -0.000000
    30  N   -0.041840  -0.000000  -0.000000   0.000000   0.000000   0.000000
    31  C   -0.001464  -0.000000   0.000000  -0.000000  -0.000000  -0.000000
    32  H    0.012898  -0.000000   0.000000  -0.000000  -0.000000  -0.000000
    33  H   -0.000495   0.000000   0.000000  -0.000000  -0.000000  -0.000000
    34  C    0.390716   0.000000   0.000000  -0.000000  -0.000000  -0.000000
    35  H   -0.033277  -0.000000  -0.000000   0.000000   0.000000   0.000000
    36  H   -0.029058   0.000000   0.000000  -0.000000  -0.000000   0.000000
    37  H    0.668079  -0.000000  -0.000000   0.000000   0.000000  -0.000000
    38  C   -0.000000   4.628722   0.373730   0.371093   0.388138  -0.014688
    39  H   -0.000000   0.373730   0.629475  -0.023499  -0.020319  -0.011471
    40  H    0.000000   0.371093  -0.023499   0.628425  -0.017252   0.007902
    41  C    0.000000   0.388138  -0.020319  -0.017252   4.762446   0.370633
    42  H   -0.000000  -0.014688  -0.011471   0.007902   0.370633   0.660905
    43  H   -0.000000  -0.013748   0.008065  -0.011761   0.367931  -0.030564
    44  C   -0.000000  -0.049535  -0.003854  -0.004418   0.408938  -0.023027
    45  H   -0.000000  -0.006317  -0.001760   0.007161  -0.027259   0.008299
    46  H   -0.000000  -0.006421   0.007099  -0.001772  -0.026731  -0.010122
    47  C    0.000000   0.009318   0.000053   0.000085  -0.060542  -0.004122
    48  H    0.000000  -0.000488   0.000015   0.000013   0.008092  -0.000092
    49  H   -0.000000   0.000380  -0.000049   0.000023  -0.007880   0.006470
    50  H    0.000000   0.000363   0.000022  -0.000049  -0.007769  -0.001491
              43         44         45         46         47         48
     1  C   -0.000000  -0.000000  -0.000000   0.000000   0.000000   0.000000
     2  H   -0.000000  -0.000000  -0.000000   0.000000   0.000000   0.000000
     3  H    0.000000  -0.000000   0.000000   0.000000   0.000000   0.000000
     4  H    0.000000   0.000000   0.000000   0.000000   0.000000   0.000000
     5  C    0.000003   0.000000  -0.000000  -0.000000  -0.000000  -0.000000
     6  C   -0.000024   0.000001   0.000000  -0.000000   0.000000  -0.000000
     7  C    0.000108  -0.000001   0.000000  -0.000003  -0.000000   0.000000
     8  C   -0.000236  -0.000007  -0.000003   0.000000  -0.000000   0.000000
     9  C   -0.000000   0.000000   0.000000  -0.000000  -0.000000   0.000000
    10  C    0.000000  -0.000000  -0.000000   0.000000  -0.000000   0.000000
    11  H    0.000000   0.000000  -0.000000  -0.000000  -0.000000   0.000000
    12  C   -0.000000   0.000000   0.000000   0.000000  -0.000000   0.000000
    13  H    0.000000  -0.000000   0.000000   0.000000   0.000000  -0.000000
    14  C    0.006791  -0.000139  -0.000109   0.000060  -0.000013   0.000000
    15  N   -0.009874   0.005250   0.000103   0.000097  -0.000175   0.000004
    16  C   -0.000004  -0.000000   0.000000   0.000000   0.000000  -0.000000
    17  H    0.000000   0.000000   0.000000  -0.000000   0.000000   0.000000
    18  C   -0.000001   0.000000   0.000000   0.000000  -0.000000   0.000000
    19  H   -0.000000  -0.000000   0.000000   0.000000   0.000000  -0.000000
    20  N   -0.000000  -0.000000   0.000000  -0.000000  -0.000000   0.000000
    21  H   -0.000000   0.000000   0.000000  -0.000000  -0.000000   0.000000
    22  C   -0.000003  -0.000000   0.000000   0.000000   0.000000   0.000000
    23  H   -0.000014   0.000000  -0.000000   0.000000   0.000000   0.000000
    24  C   -0.001144  -0.000046   0.000066  -0.000108  -0.000017   0.000000
    25  O    0.008591  -0.000188   0.000055  -0.000008   0.000001  -0.000000
    26  O    0.000081  -0.000177  -0.000007   0.000039   0.000002  -0.000000
    27  C   -0.000000  -0.000000  -0.000000   0.000000   0.000000  -0.000000
    28  H   -0.000000  -0.000000  -0.000000   0.000000   0.000000  -0.000000
    29  H    0.000000   0.000000   0.000000  -0.000000  -0.000000   0.000000
    30  N   -0.000000  -0.000000  -0.000000   0.000000   0.000000   0.000000
    31  C    0.000000   0.000000   0.000000  -0.000000  -0.000000   0.000000
    32  H    0.000000   0.000000   0.000000  -0.000000  -0.000000   0.000000
    33  H    0.000000   0.000000   0.000000  -0.000000  -0.000000   0.000000
    34  C    0.000000   0.000000   0.000000  -0.000000  -0.000000  -0.000000
    35  H   -0.000000  -0.000000  -0.000000   0.000000   0.000000  -0.000000
    36  H    0.000000   0.000000   0.000000  -0.000000  -0.000000   0.000000
    37  H   -0.000000  -0.000000  -0.000000  -0.000000   0.000000   0.000000
    38  C   -0.013748  -0.049535  -0.006317  -0.006421   0.009318  -0.000488
    39  H    0.008065  -0.003854  -0.001760   0.007099   0.000053   0.000015
    40  H   -0.011761  -0.004418   0.007161  -0.001772   0.000085   0.000013
    41  C    0.367931   0.408938  -0.027259  -0.026731  -0.060542   0.008092
    42  H   -0.030564  -0.023027   0.008299  -0.010122  -0.004122  -0.000092
    43  H    0.661142  -0.022471  -0.009883   0.008247  -0.004287  -0.000075
    44  C   -0.022471   4.668603   0.386921   0.386468   0.423863  -0.017482
    45  H   -0.009883   0.386921   0.663072  -0.031113  -0.025842  -0.005480
    46  H    0.008247   0.386468  -0.031113   0.663515  -0.025642  -0.005516
    47  C   -0.004287   0.423863  -0.025842  -0.025642   4.584940   0.388378
    48  H   -0.000075  -0.017482  -0.005480  -0.005516   0.388378   0.630020
    49  H   -0.001484  -0.023575   0.007701  -0.008638   0.396990  -0.022824
    50  H    0.006401  -0.023655  -0.008688   0.007703   0.397238  -0.022808
              49         50
     1  C    0.000000   0.000000
     2  H   -0.000000   0.000000
     3  H    0.000000  -0.000000
     4  H    0.000000   0.000000
     5  C    0.000000  -0.000000
     6  C    0.000000   0.000000
     7  C   -0.000000  -0.000000
     8  C   -0.000000  -0.000000
     9  C   -0.000000  -0.000000
    10  C   -0.000000  -0.000000
    11  H   -0.000000  -0.000000
    12  C    0.000000   0.000000
    13  H   -0.000000  -0.000000
    14  C   -0.000001  -0.000002
    15  N    0.000001   0.000001
    16  C   -0.000000  -0.000000
    17  H    0.000000  -0.000000
    18  C    0.000000   0.000000
    19  H   -0.000000   0.000000
    20  N    0.000000   0.000000
    21  H   -0.000000  -0.000000
    22  C   -0.000000  -0.000000
    23  H   -0.000000   0.000000
    24  C   -0.000002  -0.000001
    25  O    0.000000  -0.000010
    26  O   -0.000008   0.000000
    27  C   -0.000000   0.000000
    28  H   -0.000000   0.000000
    29  H    0.000000  -0.000000
    30  N   -0.000000   0.000000
    31  C    0.000000  -0.000000
    32  H    0.000000  -0.000000
    33  H    0.000000  -0.000000
    34  C    0.000000  -0.000000
    35  H   -0.000000   0.000000
    36  H   -0.000000  -0.000000
    37  H   -0.000000   0.000000
    38  C    0.000380   0.000363
    39  H   -0.000049   0.000022
    40  H    0.000023  -0.000049
    41  C   -0.007880  -0.007769
    42  H    0.006470  -0.001491
    43  H   -0.001484   0.006401
    44  C   -0.023575  -0.023655
    45  H    0.007701  -0.008688
    46  H   -0.008638   0.007703
    47  C    0.396990   0.397238
    48  H   -0.022824  -0.022808
    49  H    0.632903  -0.024849
    50  H   -0.024849   0.632345
 Mulliken charges:
               1
     1  C    0.043503
     2  H    0.058590
     3  H    0.058509
     4  H    0.027986
     5  C    0.074992
     6  C    0.108235
     7  C   -0.070636
     8  C   -0.116069
     9  C    0.073884
    10  C   -0.159993
    11  H    0.040393
    12  C   -0.029173
    13  H    0.062357
    14  C    0.226884
    15  N   -0.348399
    16  C   -0.038008
    17  H    0.045441
    18  C   -0.021883
    19  H    0.045890
    20  N   -0.158273
    21  H    0.188798
    22  C   -0.064014
    23  H    0.027186
    24  C    0.255447
    25  O   -0.379614
    26  O   -0.352204
    27  C    0.056514
    28  H    0.099373
    29  H    0.091806
    30  N   -0.466558
    31  C    0.060491
    32  H    0.049736
    33  H    0.065610
    34  C    0.032191
    35  H    0.062905
    36  H    0.061036
    37  H    0.032506
    38  C    0.126876
    39  H    0.049926
    40  H    0.049258
    41  C   -0.080828
    42  H    0.038547
    43  H    0.038213
    44  C   -0.111470
    45  H    0.043084
    46  H    0.042844
    47  C   -0.080225
    48  H    0.048242
    49  H    0.044842
    50  H    0.045250
 Sum of Mulliken charges =  -0.00000
 Mulliken charges with hydrogens summed into heavy atoms:
               1
     1  C    0.188589
     5  C    0.074992
     6  C    0.108235
     7  C   -0.070636
     8  C   -0.116069
     9  C    0.073884
    10  C   -0.119600
    12  C    0.033184
    14  C    0.226884
    15  N   -0.348399
    16  C    0.007432
    18  C    0.024007
    20  N    0.030525
    22  C   -0.036828
    24  C    0.255447
    25  O   -0.379614
    26  O   -0.352204
    27  C    0.247693
    30  N   -0.466558
    31  C    0.175836
    34  C    0.188639
    38  C    0.226060
    41  C   -0.004068
    44  C   -0.025542
    47  C    0.058109
 Electronic spatial extent (au):  <R**2>=          13336.9351
 Charge=             -0.0000 electrons
 Dipole moment (field-independent basis, Debye):
    X=             16.6604    Y=             -3.8800    Z=              1.0772  Tot=             17.1402
 Quadrupole moment (field-independent basis, Debye-Ang):
   XX=           -109.9207   YY=           -155.4606   ZZ=           -150.8124
   XY=             -2.8228   XZ=             -1.6159   YZ=              1.2502
 Traceless Quadrupole moment (field-independent basis, Debye-Ang):
   XX=             28.8106   YY=            -16.7294   ZZ=            -12.0812
   XY=             -2.8228   XZ=             -1.6159   YZ=              1.2502
 Octapole moment (field-independent basis, Debye-Ang**2):
  XXX=            324.2202  YYY=            -13.1874  ZZZ=              4.3383  XYY=            102.1739
  XXY=            -51.2182  XXZ=             13.8496  XZZ=             16.8900  YZZ=             -6.3357
  YYZ=              8.7651  XYZ=              5.2911
 Hexadecapole moment (field-independent basis, Debye-Ang**3):
 XXXX=         -13424.4670 YYYY=          -2026.5552 ZZZZ=           -717.8012 XXXY=             33.1634
 XXXZ=             87.3271 YYYX=            -11.9017 YYYZ=             18.7113 ZZZX=             50.9138
 ZZZY=              7.7494 XXYY=          -2948.8377 XXZZ=          -2591.1401 YYZZ=           -486.7836
 XXYZ=             25.6365 YYXZ=            -27.9109 ZZXY=             -7.3034
 N-N= 2.130088479122D+03 E-N=-6.790909268101D+03  KE= 1.079150460717D+03
 Unable to Open any file for archive entry.
 1\1\GINC-X1003C3S5B0N0\SP\RM062X TD-FC\def2SVP\C20H25N3O2\1008721\10-O
 ct-2025\0\\# td=(nstates=3,root=1) scrf=(smd,solvent=ethanol,corrected
 lr,noneq=save) def2svp m062x\\BN-1_ethanol_m062x_m062x_m062x\\0,1\C,
 0,7.046477,0.912716,0.180508\H,0,7.129886,1.799707,0.824446\H,0,6.9724
 22,1.249487,-0.863272\H,0,7.980351,0.322626,0.287273\C,0,1.160861,0.53
 8383,-0.255138\C,0,-0.252097,0.361051,-0.358225\C,0,-0.801238,-0.93723
 2,-0.478253\C,0,-1.111737,1.490874,-0.337097\C,0,1.990799,-0.655242,-0
 .282471\C,0,1.68456,1.834902,-0.137464\H,0,2.756972,2.017723,-0.066725
 \C,0,1.389131,-1.954515,-0.401862\H,0,2.031029,-2.835129,-0.405401\C,0
 ,-2.546097,1.328434,-0.444084\N,0,-3.034784,0.01908,-0.599369\C,0,0.02
 8909,-2.095801,-0.495363\H,0,-0.433982,-3.077706,-0.580718\C,0,0.81033
 ,2.950576,-0.111468\H,0,1.237212,3.950543,-0.015043\N,0,3.314277,-0.53
 2174,-0.193523\H,0,3.727194,0.384754,-0.009338\C,0,-0.555434,2.794601,
 -0.206395\H,0,-1.226178,3.653569,-0.187125\C,0,-2.259564,-1.120371,-0.
 577106\O,0,-3.343826,2.269863,-0.408762\O,0,-2.763184,-2.239918,-0.642
 003\C,0,4.291318,-1.599845,-0.197876\H,0,4.103603,-2.287972,-1.035414\
 H,0,4.209434,-2.188727,0.732657\N,0,5.866828,0.14899,0.543134\C,0,5.67
 6961,-0.981625,-0.349641\H,0,6.43518,-1.776213,-0.19377\H,0,5.788409,-
 0.61772,-1.382145\C,0,5.910992,-0.249471,1.939066\H,0,4.969737,-0.7314
 21,2.240123\H,0,6.046199,0.638897,2.57178\H,0,6.743591,-0.952936,2.148
 775\C,0,-4.484689,-0.152861,-0.702099\H,0,-4.667222,-1.045586,-1.31199
 1\H,0,-4.881167,0.721916,-1.229751\C,0,-5.148444,-0.295536,0.662128\H,
 0,-4.709295,-1.161225,1.185921\H,0,-4.920212,0.600211,1.263595\C,0,-6.
 658833,-0.47146,0.550814\H,0,-7.083672,0.389364,0.007686\H,0,-6.875319
 ,-1.361256,-0.063919\C,0,-7.335152,-0.607132,1.908946\H,0,-8.422906,-0
 .733326,1.807641\H,0,-6.945395,-1.477941,2.458509\H,0,-7.156342,0.2848
 6,2.529097\\Version=ES64L-G16RevC.01\State=1-A\HF=-1090.7005547\RMSD=6
 .804e-09\Dipole=6.5547246,-1.5265006,0.423816\Quadrupole=21.4199388,-1
 2.4378866,-8.9820522,-2.0986705,-1.2013627,0.9295163\PG=C01 [X(C20H25N
 3O2)]\\@
 The archive entry for this job was punched.


 "THE ACADEMIC HIERARCHY"


 THE PRESIDENT:
   LEAPS TALL BUILDINGS IN A SINGLE BOUND,
     IS MORE POWERFUL THAN A LOCOMOTIVE,
       IS FASTER THAN A SPEEDING BULLET,
         WALKS ON WATER,
           GIVES POLICY TO GOD.

 THE VICE PRESIDENT FOR ACADEMIC AFFAIRS:
   LEAPS SHORT BUILDINGS IN A SINGLE BOUND,
     IS MORE POWERFUL THAN A SWITCH ENGINE,
       IS JUST AS FAST AS A SPEEDING BULLET,
         WALKS ON WATER IF SEA IS CALM,
           TALKS WITH GOD.

 PROFESSOR:
   LEAPS SHORT BUILDINGS WITH A RUNNING START AND FAVORABLE WINDS,
     IS ALMOST AS POWERFUL AS A SWITCH ENGINE,
       CAN FIRE A SPEEDING BULLET,
         WALKS ON WATER IN AN INDOOR SWIMMING POOL,
          TALKS WITH GOD IF SPECIAL REQUEST IS APPROVED.

 ASSOCIATE PROFESSOR:
   BARELY CLEARS A QUONSET HUT,
     LOSES TUG OF WAR WITH LOCOMOTIVE,
       MISFIRES FREQUENTLY,
         SWIMS WELL,
           IS OCCASIONALLY ADDRESSED BY GOD.

 ASSISTANT PROFESSOR:
   MAKES HIGH MARKS ON WALLS WHEN TRYING TO LEAP TALL BUILDINGS,
     IS RUN OVER BY LOCOMOTIVES,
       CAN SOMETIMES HANDLE A GUN WITHOUT INFLICTING SELF INJURY,
         DOG PADDLES,
           TALKS TO ANIMALS.

 GRADUATE STUDENT:
   RUNS INTO BUILDINGS,
     RECOGNIZES LOCOMOTIVES TWO OUT OF THREE TIMES,
       IS NOT ISSUED AMMUNITION,
         CAN STAY AFLOAT WITH A LIFE JACKET,
           TALKS TO WALLS.

 UNDERGRADUATE AND WORK STUDY STUDENT:
   FALLS OVER DOORSTEP WHEN TRYING TO ENTER BUILDINGS,
     SAYS, "LOOK AT THE CHOO-CHOO,"
       WETS HIMSELF WITH A WATER PISTOL,
        PLAYS IN MUD PUDDLES,
          MUMBLES TO HIMSELF.

 DEPARTMENT SECRETARY:
   LIFTS TALL BUILDINGS AND WALKS UNDER THEM,
     KICKS LOCOMOTIVES OFF THE TRACKS,
       CATCHES SPEEDING BULLETS IN HER TEETH AND EATS THEM,
         FREEZES WATER WITH A SINGLE GLANCE,
           IS GOD.
 Job cpu time:       0 days 12 hours  4 minutes 28.1 seconds.
 Elapsed time:       0 days  0 hours 22 minutes 50.7 seconds.
 File lengths (MBytes):  RWF=   1330 Int=      0 D2E=      0 Chk=     44 Scr=      1
 Normal termination of Gaussian 16 at Fri Oct 10 13:37:04 2025.
