 Entering Gaussian System, Link 0=g16
 Initial command:
 /home/users/sutd/1008721/g16/l1.exe "/home/users/sutd/1008721/scratch/g16/scratch/Gau-1848372.inp" -scrdir="/home/users/sutd/1008721/scratch/g16/scratch/"
 Entering Link 1 = /home/users/sutd/1008721/g16/l1.exe PID=   1848373.
  
 Copyright (c) 1988-2019, Gaussian, Inc.  All Rights Reserved.
  
 This is part of the Gaussian(R) 16 program.  It is based on
 the Gaussian(R) 09 system (copyright 2009, Gaussian, Inc.),
 the Gaussian(R) 03 system (copyright 2003, Gaussian, Inc.),
 the Gaussian(R) 98 system (copyright 1998, Gaussian, Inc.),
 the Gaussian(R) 94 system (copyright 1995, Gaussian, Inc.),
 the Gaussian 92(TM) system (copyright 1992, Gaussian, Inc.),
 the Gaussian 90(TM) system (copyright 1990, Gaussian, Inc.),
 the Gaussian 88(TM) system (copyright 1988, Gaussian, Inc.),
 the Gaussian 86(TM) system (copyright 1986, Carnegie Mellon
 University), and the Gaussian 82(TM) system (copyright 1983,
 Carnegie Mellon University). Gaussian is a federally registered
 trademark of Gaussian, Inc.
  
 This software contains proprietary and confidential information,
 including trade secrets, belonging to Gaussian, Inc.
  
 This software is provided under written license and may be
 used, copied, transmitted, or stored only in accord with that
 written license.
  
 The following legend is applicable only to US Government
 contracts under FAR:
  
                    RESTRICTED RIGHTS LEGEND
  
 Use, reproduction and disclosure by the US Government is
 subject to restrictions as set forth in subparagraphs (a)
 and (c) of the Commercial Computer Software - Restricted
 Rights clause in FAR 52.227-19.
  
 Gaussian, Inc.
 340 Quinnipiac St., Bldg. 40, Wallingford CT 06492
  
  
 ---------------------------------------------------------------
 Warning -- This program may not be used in any manner that
 competes with the business of Gaussian, Inc. or will provide
 assistance to any competitor of Gaussian, Inc.  The licensee
 of this program is prohibited from giving any competitor of
 Gaussian, Inc. access to this program.  By using this program,
 the user acknowledges that Gaussian, Inc. is engaged in the
 business of creating and licensing software in the field of
 computational chemistry and represents and warrants to the
 licensee that it is not a competitor of Gaussian, Inc. and that
 it will not use this program in any manner prohibited above.
 ---------------------------------------------------------------
  

 Cite this work as:
 Gaussian 16, Revision C.01,
 M. J. Frisch, G. W. Trucks, H. B. Schlegel, G. E. Scuseria, 
 M. A. Robb, J. R. Cheeseman, G. Scalmani, V. Barone, 
 G. A. Petersson, H. Nakatsuji, X. Li, M. Caricato, A. V. Marenich, 
 J. Bloino, B. G. Janesko, R. Gomperts, B. Mennucci, H. P. Hratchian, 
 J. V. Ortiz, A. F. Izmaylov, J. L. Sonnenberg, D. Williams-Young, 
 F. Ding, F. Lipparini, F. Egidi, J. Goings, B. Peng, A. Petrone, 
 T. Henderson, D. Ranasinghe, V. G. Zakrzewski, J. Gao, N. Rega, 
 G. Zheng, W. Liang, M. Hada, M. Ehara, K. Toyota, R. Fukuda, 
 J. Hasegawa, M. Ishida, T. Nakajima, Y. Honda, O. Kitao, H. Nakai, 
 T. Vreven, K. Throssell, J. A. Montgomery, Jr., J. E. Peralta, 
 F. Ogliaro, M. J. Bearpark, J. J. Heyd, E. N. Brothers, K. N. Kudin, 
 V. N. Staroverov, T. A. Keith, R. Kobayashi, J. Normand, 
 K. Raghavachari, A. P. Rendell, J. C. Burant, S. S. Iyengar, 
 J. Tomasi, M. Cossi, J. M. Millam, M. Klene, C. Adamo, R. Cammi, 
 J. W. Ochterski, R. L. Martin, K. Morokuma, O. Farkas, 
 J. B. Foresman, and D. J. Fox, Gaussian, Inc., Wallingford CT, 2019.
 
 ******************************************
 Gaussian 16:  ES64L-G16RevC.01  3-Jul-2019
                10-Oct-2025 
 ******************************************
 %nprocshared=32
 Will use up to   32 processors via shared memory.
 %mem=64GB
 %oldchk=06BN-1_ethanol_m062x_m062x_m062x.chk
 %chk=07BN-1_ethanol_m062x_m062x_m062x.chk
 Copying data from "06BN-1_ethanol_m062x_m062x_m062x.chk" to current chk file "07BN-1_ethanol_m062x_m062x_m062x.chk"
 IOpt=  2 FromEx=T IUOpen= 4 IOptOp= 5 NList=   0 IFRang= 0 IUIn= 4 IUOut= 2.
 ----------------------------------------------------------------------
 # m062x/def2svp geom=check guess=read SCRF=(SMD, solvent=ethanol, NonE
 q=Read)
 ----------------------------------------------------------------------
 1/29=2,38=1,172=1/1;
 2/12=2,40=1/2;
 3/5=43,7=101,11=2,14=-4,25=1,30=1,70=6032201,72=4,74=-55,116=-2/1,2,3;
 4/5=1/1;
 5/5=2,38=6,53=4/2;
 6/7=2,8=2,9=2,10=2,28=1/1;
 99/5=1,9=1/99;
 --------------------------------
 BN-1_ethanol_m062x_m062x_m062x
 --------------------------------
 Structure from the checkpoint file:  "07BN-1_ethanol_m062x_m062x_m062x.chk"
 Charge =  0 Multiplicity = 1
 Z-Matrix found in chk file.
 C,0,7.046477,0.912716,0.180508
 H,0,7.129886,1.799707,0.824446
 H,0,6.972422,1.249487,-0.863272
 H,0,7.980351,0.322626,0.287273
 C,0,1.160861,0.538383,-0.255138
 C,0,-0.252097,0.361051,-0.358225
 C,0,-0.801238,-0.937232,-0.478253
 C,0,-1.111737,1.490874,-0.337097
 C,0,1.990799,-0.655242,-0.282471
 C,0,1.68456,1.834902,-0.137464
 H,0,2.756972,2.017723,-0.066725
 C,0,1.389131,-1.954515,-0.401862
 H,0,2.031029,-2.835129,-0.405401
 C,0,-2.546097,1.328434,-0.444084
 N,0,-3.034784,0.01908,-0.599369
 C,0,0.028909,-2.095801,-0.495363
 H,0,-0.433982,-3.077706,-0.580718
 C,0,0.81033,2.950576,-0.111468
 H,0,1.237212,3.950543,-0.015043
 N,0,3.314277,-0.532174,-0.193523
 H,0,3.727194,0.384754,-0.009338
 C,0,-0.555434,2.794601,-0.206395
 H,0,-1.226178,3.653569,-0.187125
 C,0,-2.259564,-1.120371,-0.577106
 O,0,-3.343826,2.269863,-0.408762
 O,0,-2.763184,-2.239918,-0.642003
 C,0,4.291318,-1.599845,-0.197876
 H,0,4.103603,-2.287972,-1.035414
 H,0,4.209434,-2.188727,0.732657
 N,0,5.866828,0.14899,0.543134
 C,0,5.676961,-0.981625,-0.349641
 H,0,6.43518,-1.776213,-0.19377
 H,0,5.788409,-0.61772,-1.382145
 C,0,5.910992,-0.249471,1.939066
 H,0,4.969737,-0.731421,2.240123
 H,0,6.046199,0.638897,2.57178
 H,0,6.743591,-0.952936,2.148775
 C,0,-4.484689,-0.152861,-0.702099
 H,0,-4.667222,-1.045586,-1.311991
 H,0,-4.881167,0.721916,-1.229751
 C,0,-5.148444,-0.295536,0.662128
 H,0,-4.709295,-1.161225,1.185921
 H,0,-4.920212,0.600211,1.263595
 C,0,-6.658833,-0.47146,0.550814
 H,0,-7.083672,0.389364,0.007686
 H,0,-6.875319,-1.361256,-0.063919
 C,0,-7.335152,-0.607132,1.908946
 H,0,-8.422906,-0.733326,1.807641
 H,0,-6.945395,-1.477941,2.458509
 H,0,-7.156342,0.28486,2.529097
 Recover connectivity data from disk.
                          Input orientation:                          
 ---------------------------------------------------------------------
 Center     Atomic      Atomic             Coordinates (Angstroms)
 Number     Number       Type             X           Y           Z
 ---------------------------------------------------------------------
      1          6           0        7.046477    0.912716    0.180508
      2          1           0        7.129886    1.799707    0.824446
      3          1           0        6.972422    1.249487   -0.863272
      4          1           0        7.980351    0.322626    0.287273
      5          6           0        1.160861    0.538383   -0.255138
      6          6           0       -0.252097    0.361051   -0.358225
      7          6           0       -0.801238   -0.937232   -0.478253
      8          6           0       -1.111737    1.490874   -0.337097
      9          6           0        1.990799   -0.655242   -0.282471
     10          6           0        1.684560    1.834902   -0.137464
     11          1           0        2.756972    2.017723   -0.066725
     12          6           0        1.389131   -1.954515   -0.401862
     13          1           0        2.031029   -2.835129   -0.405401
     14          6           0       -2.546097    1.328434   -0.444084
     15          7           0       -3.034784    0.019080   -0.599369
     16          6           0        0.028909   -2.095801   -0.495363
     17          1           0       -0.433982   -3.077706   -0.580718
     18          6           0        0.810330    2.950576   -0.111468
     19          1           0        1.237212    3.950543   -0.015043
     20          7           0        3.314277   -0.532174   -0.193523
     21          1           0        3.727194    0.384754   -0.009338
     22          6           0       -0.555434    2.794601   -0.206395
     23          1           0       -1.226178    3.653569   -0.187125
     24          6           0       -2.259564   -1.120371   -0.577106
     25          8           0       -3.343826    2.269863   -0.408762
     26          8           0       -2.763184   -2.239918   -0.642003
     27          6           0        4.291318   -1.599845   -0.197876
     28          1           0        4.103603   -2.287972   -1.035414
     29          1           0        4.209434   -2.188727    0.732657
     30          7           0        5.866828    0.148990    0.543134
     31          6           0        5.676961   -0.981625   -0.349641
     32          1           0        6.435180   -1.776213   -0.193770
     33          1           0        5.788409   -0.617720   -1.382145
     34          6           0        5.910992   -0.249471    1.939066
     35          1           0        4.969737   -0.731421    2.240123
     36          1           0        6.046199    0.638897    2.571780
     37          1           0        6.743591   -0.952936    2.148775
     38          6           0       -4.484689   -0.152861   -0.702099
     39          1           0       -4.667222   -1.045586   -1.311991
     40          1           0       -4.881167    0.721916   -1.229751
     41          6           0       -5.148444   -0.295536    0.662128
     42          1           0       -4.709295   -1.161225    1.185921
     43          1           0       -4.920212    0.600211    1.263595
     44          6           0       -6.658833   -0.471460    0.550814
     45          1           0       -7.083672    0.389364    0.007686
     46          1           0       -6.875319   -1.361256   -0.063919
     47          6           0       -7.335152   -0.607132    1.908946
     48          1           0       -8.422906   -0.733326    1.807641
     49          1           0       -6.945395   -1.477941    2.458509
     50          1           0       -7.156342    0.284860    2.529097
 ---------------------------------------------------------------------
                    Distance matrix (angstroms):
                    1          2          3          4          5
     1  C    0.000000
     2  H    1.099257   0.000000
     3  H    1.099261   1.782114   0.000000
     4  H    1.109831   1.787069   1.788504   0.000000
     5  C    5.913577   6.195619   5.886403   6.844429   0.000000
     6  C    7.339193   7.613285   7.296442   8.257805   1.427769
     7  C    8.089679   8.490618   8.084539   8.904470   2.465168
     8  C    8.195037   8.328800   8.104860   9.188074   2.465493
     9  C    5.313447   5.801918   5.364876   6.095537   1.454058
    10  C    5.449925   5.529745   5.369450   6.488788   1.403235
    11  H    4.436442   4.468120   4.358290   5.502941   2.184380
    12  C    6.369123   6.968090   6.453810   7.007457   2.507623
    13  H    6.288430   6.999469   6.427371   6.770941   3.487170
    14  C    9.621872   9.770154   9.528072  10.599653   3.794920
    15  N   10.150794  10.417216  10.086016  11.054930   4.241652
    16  C    7.665131   8.206141   7.716131   8.347858   2.877142
    17  H    8.512356   9.109102   8.582497   9.116834   3.965555
    18  C    6.567165   6.491319   6.436637   7.646850   2.441759
    19  H    6.558521   6.328858   6.395923   7.663100   3.421449
    20  N    4.019568   4.586153   4.123700   4.768028   2.405637
    21  H    3.366367   3.778307   3.465324   4.263940   2.582651
    22  C    7.840933   7.817710   7.712813   8.900224   2.835236
    23  H    8.722629   8.618810   8.570521   9.802062   3.925171
    24  C    9.555617   9.932420   9.535601  10.377150   3.815028
    25  O   10.495117  10.556538  10.376547  11.511437   4.828440
    26  O   10.336589  10.786189  10.344415  11.083940   4.823562
    27  C    3.747938   4.545279   3.968597   4.188106   3.791445
    28  H    4.514795   5.415403   4.557781   4.857355   4.154136
    29  H    4.239414   4.944196   4.690672   4.552480   4.207929
    30  N    1.451326   2.097455   2.100336   2.136023   4.789049
    31  C    2.396906   3.350415   2.630570   2.722560   4.765975
    32  H    2.782824   3.782405   3.145111   2.650298   5.760170
    33  H    2.523263   3.537309   2.271030   2.911326   4.901114
    34  C    2.394270   2.631959   3.350613   2.708867   5.291407
    35  H    3.355302   3.616213   4.191158   3.740112   4.727184
    36  H    2.606476   2.361151   3.609749   3.009974   5.645183
    37  H    2.728823   3.078979   3.738376   2.573290   6.258570
    38  C   11.613881  11.876077  11.543741  12.513280   5.705246
    39  H   11.969680  12.322005  11.872237  12.821496   6.131268
    40  H   12.012241  12.233019  11.870982  12.956830   6.122880
    41  C   12.264091  12.456877  12.313786  13.148684   6.429940
    42  H   11.979577  12.209176  12.102613  12.807673   6.278857
    43  H   12.019666  12.117611  12.098755  12.940432   6.268159
    44  C   13.780007  13.977190  13.812039  14.663074   7.925715
    45  H   14.140894  14.306691  14.109293  15.066765   8.250067
    46  H   14.108405  14.384945  14.114350  14.954923   8.259866
    47  C   14.564638  14.703957  14.691457  15.429158   8.841815
    48  H   15.641574  15.788359  15.750602  16.507374   9.885388
    49  H   14.376266  14.543957  14.566356  15.189937   8.782985
    50  H   14.409377  14.467097  14.562302  15.301852   8.774514
                    6          7          8          9         10
     6  C    0.000000
     7  C    1.414744   0.000000
     8  C    1.419834   2.451945   0.000000
     9  C    2.463569   2.813062   3.772867   0.000000
    10  C    2.443688   3.738991   2.824444   2.513091   0.000000
    11  H    3.447322   4.643487   3.913768   2.788962   1.090181
    12  C    2.838552   2.416282   4.257845   1.436791   3.810100
    13  H    3.928162   3.410140   5.347518   2.183721   4.690525
    14  C    2.491112   2.859885   1.447488   4.954242   4.271883
    15  N    2.813973   2.432679   2.435790   5.080514   5.077674
    16  C    2.476670   1.425384   3.767009   2.443265   4.280152
    17  H    3.450744   2.174168   4.625000   3.440472   5.368278
    18  C    2.809854   4.224539   2.424042   3.797983   1.417633
    19  H    3.901316   5.316031   3.416321   4.674684   2.165882
    20  N    3.680218   4.145191   4.868566   1.332160   2.874399
    21  H    3.994626   4.740699   4.974553   2.042366   2.508326
    22  C    2.457078   3.749787   1.423468   4.288415   2.437898
    23  H    3.437846   4.619609   2.170907   5.378093   3.432552
    24  C    2.504485   1.473101   2.862466   4.285877   4.948034
    25  O    3.633855   4.093292   2.365202   6.085262   5.054449
    26  O    3.626448   2.360728   4.091339   5.024024   6.053193
    27  C    4.951105   5.143131   6.226149   2.488337   4.312346
    28  H    5.142765   5.117850   6.478202   2.774288   4.863761
    29  H    5.253251   5.304656   6.557339   2.881736   4.829254
    30  N    6.188591   6.832731   7.160714   4.043762   4.560359
    31  C    6.079192   6.479628   7.224945   3.701193   4.890512
    32  H    7.022437   7.290443   8.224984   4.584426   5.967555
    33  H    6.204363   6.659021   7.290426   3.953800   4.940259
    34  C    6.605600   7.167320   7.584751   4.524134   5.149691
    35  H    5.934009   6.382482   6.968858   3.904274   4.799096
    36  H    6.952026   7.659914   7.773254   5.125214   5.272032
    37  H    7.546606   7.989116   8.594065   5.346832   6.212304
    38  C    4.277521   3.772686   3.769867   6.508488   6.506124
    39  H    4.730922   3.956348   4.474988   6.748446   7.072613
    40  H    4.724200   4.468036   3.949270   7.072328   6.748378
    41  C    5.044447   4.539873   4.526004   7.210440   7.201948
    42  H    4.956645   4.253535   4.721826   6.877751   7.183976
    43  H    4.947605   4.729029   4.226107   7.192257   6.863705
    44  C    6.524239   5.965513   5.950581   8.691621   8.683619
    45  H    6.841426   6.439330   6.082451   9.139005   8.887775
    46  H    6.849819   6.102944   6.436470   8.896869   9.137416
    47  C    7.499807   6.964174   6.940982   9.580083   9.565904
    48  H    8.523541   7.959693   7.937264  10.621672  10.608492
    49  H    7.491069   6.831369   7.117643   9.383249   9.601569
    50  H    7.484052   7.136176   6.797557   9.615555   9.363478
                   11         12         13         14         15
    11  H    0.000000
    12  C    4.214496   0.000000
    13  H    4.918523   1.089737   0.000000
    14  C    5.360976   5.124993   6.187636   0.000000
    15  N    6.150018   4.848207   5.817783   1.406178   0.000000
    16  C    4.954507   1.370733   2.136161   4.284702   3.724212
    17  H    6.034051   2.148788   2.483115   4.888125   4.044082
    18  C    2.159081   4.947652   5.920379   3.742670   4.859693
    19  H    2.459296   5.919664   6.843089   4.623090   5.835048
    20  N    2.613167   2.402633   2.644848   6.153749   6.385857
    21  H    1.900319   3.330585   3.660804   6.358751   6.797514
    22  C    3.405155   5.135528   6.198649   2.483723   3.742342
    23  H    4.307664   6.191652   7.263625   2.685976   4.080504
    24  C    5.939171   3.746930   4.623750   2.469097   1.378336
    25  O    6.115578   6.343997   7.412828   1.234467   2.279882
    26  O    6.995039   4.169034   4.836810   3.580424   2.275666
    27  C    3.931694   2.930886   2.584163   7.442156   7.513580
    28  H    4.614194   2.807301   2.234247   7.592534   7.514599
    29  H    4.521380   3.048950   2.541350   7.706643   7.689434
    30  N    3.679035   5.036618   4.951569   8.552368   8.975572
    31  C    4.195529   4.397127   4.090404   8.541895   8.772587
    32  H    5.285764   5.053484   4.534604   9.506042   9.647166
    33  H    4.226760   4.701236   4.470888   8.609963   8.880709
    34  C    4.371637   5.369762   5.218838   8.927012   9.302832
    35  H    4.216120   4.614844   4.478883   8.242313   8.526331
    36  H    4.436427   6.103820   6.087204   9.132275   9.638704
    37  H    5.443013   6.014911   5.681083   9.910897  10.203613
    38  C    7.586619   6.151249   7.052459   2.453354   1.463674
    39  H    8.127312   6.191438   6.992205   3.299758   2.075138
    40  H    7.834087   6.867701   7.817325   2.537260   2.073762
    41  C    8.269099   6.828190   7.689862   3.260858   2.481515
    42  H    8.210967   6.351469   7.125042   3.678960   2.717419
    43  H    7.919485   7.007723   7.931384   3.013785   2.713519
    44  C    9.758830   8.238736   9.056212   4.598265   3.833703
    45  H    9.974736   8.800562   9.677074   4.655699   4.110854
    46  H   10.207768   8.292605   9.033933   5.110883   4.116035
    47  C   10.613393   9.125151   9.901794   5.676109   5.017664
    48  H   11.664956  10.131598  10.890358   6.622538   5.949090
    49  H   10.617551   8.824578   9.519460   5.971148   5.185033
    50  H   10.393022   9.307547  10.136735   5.584193   5.181233
                   16         17         18         19         20
    16  C    0.000000
    17  H    1.088894   0.000000
    18  C    5.120929   6.173224   0.000000
    19  H    6.184576   7.246321   1.091540   0.000000
    20  N    3.650983   4.547428   4.290225   4.943764   0.000000
    21  H    4.479585   5.443390   3.886125   4.349126   1.022341
    22  C    4.933659   5.885479   1.377915   2.141588   5.103162
    23  H    5.892835   6.789150   2.155757   2.487186   6.175453
    24  C    2.489027   2.676551   5.119929   6.185267   5.617901
    25  O    5.517415   6.090423   4.220043   4.895468   7.226899
    26  O    2.799653   2.476051   6.323978   7.397165   6.328748
    27  C    4.301465   4.965793   5.729841   6.337807   1.447256
    28  H    4.114817   4.628186   6.256333   6.940924   2.101105
    29  H    4.358148   4.906786   6.219236   6.861763   2.098400
    30  N    6.340257   7.167623   5.817694   6.016370   2.742656
    31  C    5.758742   6.464563   6.261232   6.644517   2.410115
    32  H    6.421324   7.002071   7.347669   7.736055   3.359713
    33  H    6.011900   6.738840   6.255288   6.591767   2.746174
    34  C    6.628294   7.389649   6.360955   6.580492   3.372060
    35  H    5.810008   6.531644   6.032226   6.398305   2.950064
    36  H    7.286544   8.108275   6.321234   6.386314   4.059767
    37  H    7.306474   7.967580   7.453166   7.684167   4.174158
    38  C    4.918366   4.997767   6.165825   7.074611   7.824730
    39  H    4.880930   4.752325   6.885793   7.842558   8.075821
    40  H    5.708564   5.885221   6.213744   7.023824   8.355346
    41  C    5.602296   5.613492   6.829545   7.698334   8.509159
    42  H    5.113778   5.007216   7.004026   7.933059   8.165554
    43  H    5.903915   6.087267   6.344614   7.125553   8.438738
    44  C    6.961240   6.842635   8.242411   9.067625  10.001032
    45  H    7.551021   7.522312   8.299956   9.050946  10.440645
    46  H    6.956584   6.686113   8.812682   9.696946  10.224091
    47  C    7.888361   7.741338   9.115275   9.897452  10.855244
    48  H    8.865289   8.661598  10.124562  10.889384  11.908257
    49  H    7.599212   7.361701   9.293429  10.126300  10.639014
    50  H    8.151241   8.134367   8.806048   9.505873  10.849611
                   21         22         23         24         25
    21  H    0.000000
    22  C    4.918038   0.000000
    23  H    5.937395   1.089998   0.000000
    24  C    6.199116   4.285848   4.900048   0.000000
    25  O    7.328881   2.844544   2.539330   3.563376   0.000000
    26  O    7.029522   5.514553   6.107576   1.229321   4.552985
    27  C    2.071815   6.542342   7.618480   6.579344   8.562391
    28  H    2.887556   6.944526   8.026710   6.485617   8.753899
    29  H    2.721381   6.958401   8.032702   6.686165   8.844976
    30  N    2.222351   6.986165   7.945193   8.300871   9.499492
    31  C    2.405076   7.288563   8.316536   7.940996   9.589070
    32  H    3.469435   8.352316   9.390367   8.727866  10.585174
    33  H    2.671734   7.298676   8.299181   8.103741   9.627218
    34  C    2.994577   7.462174   8.407949   8.593461   9.874766
    35  H    2.801756   6.996127   7.969255   7.768581   9.227114
    36  H    3.479158   7.479764   8.341899   9.055176   9.985802
    37  H    3.942780   8.536195   9.497028   9.408255  10.894192
    38  C    8.258569   4.936831   5.037063   2.429584   2.693920
    39  H    8.614464   5.733775   5.931961   2.518425   3.682309
    40  H    8.700975   4.904615   4.800063   3.269980   2.331004
    41  C    8.926960   5.603483   5.630349   3.249874   3.314321
    42  H    8.659852   5.902683   6.099148   3.018462   4.022423
    43  H    8.743249   5.101716   5.007342   3.664373   2.840688
    44  C   10.436303   6.963620   6.861061   4.587685   4.407370
    45  H   10.810880   6.960523   6.708444   5.088546   4.206680
    46  H   10.745455   7.565209   7.554895   4.650439   5.076946
    47  C   11.271165   7.874708   7.737354   5.674986   5.438709
    48  H   12.335982   8.854362   8.661226   6.619940   6.303066
    49  H   11.111438   8.135596   8.126575   5.594625   5.936209
    50  H   11.176090   7.573223   7.341179   5.966708   5.206393
                   26         27         28         29         30
    26  O    0.000000
    27  C    7.097390   0.000000
    28  H    6.878215   1.100103   0.000000
    29  H    7.107019   1.104255   1.774014   0.000000
    30  N    9.032637   2.467742   3.396993   2.871897   0.000000
    31  C    8.538432   1.524872   2.156915   2.186801   1.453061
    32  H    9.220945   2.151108   2.531109   2.445890   2.138331
    33  H    8.735507   2.146705   2.397610   3.071419   2.073811
    34  C    9.266344   3.002228   4.033568   2.848058   1.452359
    35  H    8.389296   2.675491   3.728563   2.230304   2.111792
    36  H    9.809241   3.970210   5.035086   3.840773   2.094657
    37  H    9.991173   3.455272   4.346368   3.155079   2.135659
    38  C    2.706104   8.908777   8.855990   9.043840  10.430514
    39  H    2.345351   9.044551   8.862696   9.180543  10.762653
    40  H    3.688328   9.517869   9.477515   9.744840  10.908289
    41  C    3.342281   9.568173   9.615187   9.547724  11.024880
    42  H    2.879624   9.116925   9.158114   8.989157  10.676339
    43  H    4.043564   9.582715   9.749681   9.560884  10.820485
    44  C    4.441434  11.033567  11.029318  11.004604  12.541021
    45  H    5.099200  11.549442  11.550381  11.606308  12.963793
    46  H    4.244512  11.169989  11.060711  11.144101  12.845687
    47  C    5.484179  11.857444  11.930616  11.711642  13.293962
    48  H    6.348467  12.900560  12.938830  12.761262  14.372681
    49  H    5.261623  11.547076  11.616540  11.309907  13.056363
    50  H    5.977476  11.917945  12.087662  11.769736  13.174425
                   31         32         33         34         35
    31  C    0.000000
    32  H    1.109307   0.000000
    33  H    1.100414   1.781195   0.000000
    34  C    2.414332   2.674828   3.343812   0.000000
    35  H    2.696228   3.027036   3.715370   1.099487   0.000000
    36  H    3.361120   3.692198   4.156809   1.099002   1.773848
    37  H    2.716727   2.502083   3.673165   1.109983   1.789964
    38  C   10.201481  11.051570  10.306071  10.726382   9.918547
    39  H   10.389049  11.182467  10.464617  11.095124  10.275563
    40  H   10.730830  11.635017  10.754427  11.289628  10.544787
    41  C   10.894209  11.709198  11.130930  11.133006  10.249763
    42  H   10.500691  11.246381  10.820913  10.685926   9.745755
    43  H   10.835350  11.692572  11.097651  10.885458  10.026861
    44  C   12.379132  13.179908  12.597284  12.648202  11.753509
    45  H   12.839044  13.692687  12.986005  13.152932  12.309533
    46  H   12.561269  13.317599  12.753845  12.989910  12.083487
    47  C   13.211985  13.978920  13.529939  13.251006  12.309972
    48  H   14.266106  15.028506  14.565355  14.342664  13.399624
    49  H   12.940476  13.644169  13.328179  12.925388  11.940492
    50  H   13.213053  14.013975  13.552824  13.091557  12.172022
                   36         37         38         39         40
    36  H    0.000000
    37  H    1.788637   0.000000
    38  C   11.056436  11.612143   0.000000
    39  H   11.519486  11.924435   1.096469   0.000000
    40  H   11.570041  12.221071   1.095831   1.782302   0.000000
    41  C   11.394734  12.002616   1.523825   2.165940   2.164683
    42  H   10.992802  11.495176   2.152177   2.500941   3.067773
    43  H   11.044230  11.800005   2.149593   3.066968   2.496620
    44  C   12.912592  13.505935   2.529466   2.786786   2.784718
    45  H   13.380223  14.056288   2.748184   3.104812   2.548111
    46  H   13.338409  13.803530   2.753653   2.555978   3.110532
    47  C   13.455575  14.085031   3.892179   4.205298   4.199980
    48  H   14.554103  15.171922   4.705878   4.892318   4.887473
    49  H   13.163409  13.702551   4.219047   4.426474   4.764837
    50  H   13.207356  13.960119   4.215443   4.766525   4.415470
                   41         42         43         44         45
    41  C    0.000000
    42  H    1.103009   0.000000
    43  H    1.102821   1.775718   0.000000
    44  C    1.524669   2.163293   2.163178   0.000000
    45  H    2.154644   3.070868   2.510443   1.102948   0.000000
    46  H    2.155226   2.508739   3.071171   1.102950   1.764429
    47  C    2.536403   2.779372   2.775985   1.523265   2.161258
    48  H    3.496564   3.789530   3.787238   2.181775   2.508748
    49  H    2.802517   2.592283   3.138137   2.175873   3.084231
    50  H    2.802514   3.143775   2.588671   2.175578   2.524622
                   46         47         48         49         50
    46  H    0.000000
    47  C    2.161561   0.000000
    48  H    2.508398   1.099726   0.000000
    49  H    2.526098   1.101017   1.777954   0.000000
    50  H    3.084219   1.101004   1.778029   1.776780   0.000000
 Stoichiometry    C20H25N3O2
 Framework group  C1[X(C20H25N3O2)]
 Deg. of freedom   144
 Full point group                 C1      NOp   1
 Largest Abelian subgroup         C1      NOp   1
 Largest concise Abelian subgroup C1      NOp   1
                         Standard orientation:                         
 ---------------------------------------------------------------------
 Center     Atomic      Atomic             Coordinates (Angstroms)
 Number     Number       Type             X           Y           Z
 ---------------------------------------------------------------------
      1          6           0        7.046477    0.912716    0.180508
      2          1           0        7.129886    1.799707    0.824446
      3          1           0        6.972422    1.249487   -0.863272
      4          1           0        7.980351    0.322626    0.287273
      5          6           0        1.160861    0.538383   -0.255138
      6          6           0       -0.252097    0.361051   -0.358225
      7          6           0       -0.801238   -0.937232   -0.478253
      8          6           0       -1.111737    1.490874   -0.337097
      9          6           0        1.990799   -0.655242   -0.282471
     10          6           0        1.684560    1.834902   -0.137464
     11          1           0        2.756972    2.017723   -0.066725
     12          6           0        1.389131   -1.954515   -0.401862
     13          1           0        2.031029   -2.835129   -0.405401
     14          6           0       -2.546097    1.328434   -0.444084
     15          7           0       -3.034784    0.019080   -0.599369
     16          6           0        0.028909   -2.095801   -0.495363
     17          1           0       -0.433982   -3.077706   -0.580718
     18          6           0        0.810330    2.950576   -0.111468
     19          1           0        1.237212    3.950543   -0.015043
     20          7           0        3.314277   -0.532174   -0.193523
     21          1           0        3.727194    0.384754   -0.009338
     22          6           0       -0.555434    2.794601   -0.206395
     23          1           0       -1.226178    3.653569   -0.187125
     24          6           0       -2.259564   -1.120371   -0.577106
     25          8           0       -3.343826    2.269863   -0.408762
     26          8           0       -2.763184   -2.239918   -0.642003
     27          6           0        4.291318   -1.599845   -0.197876
     28          1           0        4.103603   -2.287972   -1.035414
     29          1           0        4.209434   -2.188727    0.732657
     30          7           0        5.866828    0.148990    0.543134
     31          6           0        5.676961   -0.981625   -0.349641
     32          1           0        6.435180   -1.776213   -0.193770
     33          1           0        5.788409   -0.617720   -1.382145
     34          6           0        5.910992   -0.249471    1.939066
     35          1           0        4.969737   -0.731421    2.240123
     36          1           0        6.046199    0.638897    2.571780
     37          1           0        6.743591   -0.952936    2.148775
     38          6           0       -4.484689   -0.152861   -0.702099
     39          1           0       -4.667222   -1.045586   -1.311991
     40          1           0       -4.881167    0.721916   -1.229751
     41          6           0       -5.148444   -0.295536    0.662128
     42          1           0       -4.709295   -1.161225    1.185921
     43          1           0       -4.920212    0.600211    1.263595
     44          6           0       -6.658833   -0.471460    0.550814
     45          1           0       -7.083672    0.389364    0.007686
     46          1           0       -6.875319   -1.361256   -0.063919
     47          6           0       -7.335152   -0.607132    1.908946
     48          1           0       -8.422906   -0.733326    1.807641
     49          1           0       -6.945395   -1.477941    2.458509
     50          1           0       -7.156342    0.284860    2.529097
 ---------------------------------------------------------------------
 Rotational constants (GHZ):           0.5510828           0.0889365           0.0812101
 Standard basis: def2SVP (5D, 7F)
 There are   500 symmetry adapted cartesian basis functions of A   symmetry.
 There are   475 symmetry adapted basis functions of A   symmetry.
   475 basis functions,   800 primitive gaussians,   500 cartesian basis functions
    91 alpha electrons       91 beta electrons
       nuclear repulsion energy      2130.0913759198 Hartrees.
 NAtoms=   50 NActive=   50 NUniq=   50 SFac= 1.00D+00 NAtFMM=   60 NAOKFM=F Big=F
 Integral buffers will be    131072 words long.
 Raffenetti 2 integral format.
 Two-electron integral symmetry is turned on.
 ------------------------------------------------------------------------------
 Polarizable Continuum Model (PCM)
 =================================
 Model                : PCM.
 Atomic radii         : SMD-Coulomb.
 Polarization charges : Total charges.
 Charge compensation  : None.
 Solution method      : On-the-fly selection.
 Cavity type          : VdW (van der Waals Surface) (Alpha=1.000).
 Cavity algorithm     : GePol (No added spheres)
                        Default sphere list used, NSphG=   50.
                        Lebedev-Laikov grids with approx.  5.0 points / Ang**2.
                        Smoothing algorithm: York/Karplus (Gamma=1.0000).
                        Polarization charges: spherical gaussians, with
                                              point-specific exponents (IZeta= 3).
                        Self-potential: point-specific (ISelfS= 7).
                        Self-field    : sphere-specific E.n sum rule (ISelfD= 2).
 Solvent              : Ethanol, Eps=  24.852000 Eps(inf)=   1.852593
 ------------------------------------------------------------------------------
 ------------------------------------------------------------------------------
 Atomic radii for non-electrostatic terms: SMD-CDS.
 ------------------------------------------------------------------------------
 Nuclear repulsion after PCM non-electrostatic terms =     2130.0884791219 Hartrees.
 One-electron integrals computed using PRISM.
   1 Symmetry operations used in ECPInt.
 ECPInt:  NShTT=   25425 NPrTT=   90925 LenC2=   20310 LenP2D=   49169.
 LDataN:  DoStor=T MaxTD1= 4 Len=   56
 NBasis=   475 RedAO= T EigKep=  2.26D-04  NBF=   475
 NBsUse=   475 1.00D-06 EigRej= -1.00D+00 NBFU=   475
 Initial guess from the checkpoint file:  "07BN-1_ethanol_m062x_m062x_m062x.chk"
 B after Tr=    -0.000000    0.000000    0.000000
         Rot=    1.000000    0.000000    0.000000    0.000000 Ang=   0.00 deg.
 Requested convergence on RMS density matrix=1.00D-08 within 128 cycles.
 Requested convergence on MAX density matrix=1.00D-06.
 Requested convergence on             energy=1.00D-06.
 No special actions if energy rises.
 Inv3:  Mode=1 IEnd=    36247728.
 Iteration    1 A*A^-1 deviation from unit magnitude is 5.77D-15 for   3460.
 Iteration    1 A*A^-1 deviation from orthogonality  is 1.83D-15 for   3460   2408.
 Iteration    1 A^-1*A deviation from unit magnitude is 5.77D-15 for   3460.
 Iteration    1 A^-1*A deviation from orthogonality  is 6.58D-15 for   2139   2104.
 NEqPCM:  Using non-equilibrium solvation (IEInf=1, Eps=  24.8520, EpsInf=   1.8526)
 Inv3:  Mode=1 IEnd=    36247728.
 Iteration    1 A*A^-1 deviation from unit magnitude is 7.55D-15 for   3469.
 Iteration    1 A*A^-1 deviation from orthogonality  is 2.12D-15 for   1831   1601.
 Iteration    1 A^-1*A deviation from unit magnitude is 7.55D-15 for   3469.
 Iteration    1 A^-1*A deviation from orthogonality  is 2.33D-15 for   3446   1642.
 Error on total polarization charges =  0.03553
 SCF Done:  E(RM062X) =  -1090.69850712     A.U. after   12 cycles
            NFock= 12  Conv=0.35D-08     -V/T= 2.0108
 SMD-CDS (non-electrostatic) energy       (kcal/mol) =      -1.82
 (included in total energy above)

 **********************************************************************

            Population analysis using the SCF Density.

 **********************************************************************

 Orbital symmetries:
       Occupied  (A) (A) (A) (A) (A) (A) (A) (A) (A) (A) (A) (A)
                 (A) (A) (A) (A) (A) (A) (A) (A) (A) (A) (A) (A)
                 (A) (A) (A) (A) (A) (A) (A) (A) (A) (A) (A) (A)
                 (A) (A) (A) (A) (A) (A) (A) (A) (A) (A) (A) (A)
                 (A) (A) (A) (A) (A) (A) (A) (A) (A) (A) (A) (A)
                 (A) (A) (A) (A) (A) (A) (A) (A) (A) (A) (A) (A)
                 (A) (A) (A) (A) (A) (A) (A) (A) (A) (A) (A) (A)
                 (A) (A) (A) (A) (A) (A) (A)
       Virtual   (A) (A) (A) (A) (A) (A) (A) (A) (A) (A) (A) (A)
                 (A) (A) (A) (A) (A) (A) (A) (A) (A) (A) (A) (A)
                 (A) (A) (A) (A) (A) (A) (A) (A) (A) (A) (A) (A)
                 (A) (A) (A) (A) (A) (A) (A) (A) (A) (A) (A) (A)
                 (A) (A) (A) (A) (A) (A) (A) (A) (A) (A) (A) (A)
                 (A) (A) (A) (A) (A) (A) (A) (A) (A) (A) (A) (A)
                 (A) (A) (A) (A) (A) (A) (A) (A) (A) (A) (A) (A)
                 (A) (A) (A) (A) (A) (A) (A) (A) (A) (A) (A) (A)
                 (A) (A) (A) (A) (A) (A) (A) (A) (A) (A) (A) (A)
                 (A) (A) (A) (A) (A) (A) (A) (A) (A) (A) (A) (A)
                 (A) (A) (A) (A) (A) (A) (A) (A) (A) (A) (A) (A)
                 (A) (A) (A) (A) (A) (A) (A) (A) (A) (A) (A) (A)
                 (A) (A) (A) (A) (A) (A) (A) (A) (A) (A) (A) (A)
                 (A) (A) (A) (A) (A) (A) (A) (A) (A) (A) (A) (A)
                 (A) (A) (A) (A) (A) (A) (A) (A) (A) (A) (A) (A)
                 (A) (A) (A) (A) (A) (A) (A) (A) (A) (A) (A) (A)
                 (A) (A) (A) (A) (A) (A) (A) (A) (A) (A) (A) (A)
                 (A) (A) (A) (A) (A) (A) (A) (A) (A) (A) (A) (A)
                 (A) (A) (A) (A) (A) (A) (A) (A) (A) (A) (A) (A)
                 (A) (A) (A) (A) (A) (A) (A) (A) (A) (A) (A) (A)
                 (A) (A) (A) (A) (A) (A) (A) (A) (A) (A) (A) (A)
                 (A) (A) (A) (A) (A) (A) (A) (A) (A) (A) (A) (A)
                 (A) (A) (A) (A) (A) (A) (A) (A) (A) (A) (A) (A)
                 (A) (A) (A) (A) (A) (A) (A) (A) (A) (A) (A) (A)
                 (A) (A) (A) (A) (A) (A) (A) (A) (A) (A) (A) (A)
                 (A) (A) (A) (A) (A) (A) (A) (A) (A) (A) (A) (A)
                 (A) (A) (A) (A) (A) (A) (A) (A) (A) (A) (A) (A)
                 (A) (A) (A) (A) (A) (A) (A) (A) (A) (A) (A) (A)
                 (A) (A) (A) (A) (A) (A) (A) (A) (A) (A) (A) (A)
                 (A) (A) (A) (A) (A) (A) (A) (A) (A) (A) (A) (A)
                 (A) (A) (A) (A) (A) (A) (A) (A) (A) (A) (A) (A)
                 (A) (A) (A) (A) (A) (A) (A) (A) (A) (A) (A) (A)
 The electronic state is 1-A.
 Alpha  occ. eigenvalues --  -19.62304 -19.60651 -14.80964 -14.78649 -14.74863
 Alpha  occ. eigenvalues --  -10.68081 -10.66596 -10.62507 -10.58706 -10.58496
 Alpha  occ. eigenvalues --  -10.58283 -10.58067 -10.58027 -10.58022 -10.57799
 Alpha  occ. eigenvalues --  -10.57191 -10.57061 -10.56979 -10.56177 -10.56103
 Alpha  occ. eigenvalues --  -10.55327 -10.55083 -10.54294 -10.54141 -10.53504
 Alpha  occ. eigenvalues --   -1.17100  -1.14638  -1.06094  -1.03991  -1.01735
 Alpha  occ. eigenvalues --   -0.97998  -0.92209  -0.89835  -0.87588  -0.84866
 Alpha  occ. eigenvalues --   -0.84112  -0.81635  -0.79991  -0.78090  -0.75714
 Alpha  occ. eigenvalues --   -0.74229  -0.72969  -0.71312  -0.69720  -0.68575
 Alpha  occ. eigenvalues --   -0.65295  -0.64759  -0.64353  -0.60804  -0.59286
 Alpha  occ. eigenvalues --   -0.58480  -0.56981  -0.55582  -0.55374  -0.54642
 Alpha  occ. eigenvalues --   -0.54462  -0.53664  -0.52704  -0.51769  -0.51500
 Alpha  occ. eigenvalues --   -0.51125  -0.50788  -0.50020  -0.48971  -0.48320
 Alpha  occ. eigenvalues --   -0.47573  -0.47259  -0.46684  -0.46440  -0.45729
 Alpha  occ. eigenvalues --   -0.44778  -0.44509  -0.44121  -0.43121  -0.42327
 Alpha  occ. eigenvalues --   -0.41760  -0.40950  -0.40557  -0.40488  -0.39798
 Alpha  occ. eigenvalues --   -0.39554  -0.39099  -0.37721  -0.37298  -0.35898
 Alpha  occ. eigenvalues --   -0.34033  -0.33350  -0.31953  -0.31629  -0.27939
 Alpha  occ. eigenvalues --   -0.23814
 Alpha virt. eigenvalues --   -0.06071   0.00863   0.01810   0.05172   0.09714
 Alpha virt. eigenvalues --    0.10630   0.11444   0.12732   0.13481   0.13736
 Alpha virt. eigenvalues --    0.13874   0.14310   0.14587   0.14689   0.14987
 Alpha virt. eigenvalues --    0.15292   0.16532   0.16945   0.17527   0.18376
 Alpha virt. eigenvalues --    0.18402   0.19125   0.19289   0.19531   0.20172
 Alpha virt. eigenvalues --    0.20799   0.21124   0.21554   0.21617   0.22172
 Alpha virt. eigenvalues --    0.23180   0.23710   0.24075   0.24284   0.25123
 Alpha virt. eigenvalues --    0.26875   0.26966   0.27893   0.28571   0.28993
 Alpha virt. eigenvalues --    0.29099   0.29656   0.29736   0.29874   0.30525
 Alpha virt. eigenvalues --    0.30826   0.31475   0.31790   0.33745   0.34063
 Alpha virt. eigenvalues --    0.34346   0.35595   0.37318   0.37947   0.39782
 Alpha virt. eigenvalues --    0.40914   0.41814   0.43804   0.45457   0.45914
 Alpha virt. eigenvalues --    0.46122   0.46629   0.47175   0.47654   0.48688
 Alpha virt. eigenvalues --    0.48926   0.49283   0.49454   0.50103   0.50339
 Alpha virt. eigenvalues --    0.50681   0.51025   0.51216   0.51909   0.52508
 Alpha virt. eigenvalues --    0.53612   0.53889   0.54748   0.55407   0.56266
 Alpha virt. eigenvalues --    0.58214   0.58424   0.60103   0.60380   0.61334
 Alpha virt. eigenvalues --    0.62127   0.62820   0.64165   0.64982   0.66255
 Alpha virt. eigenvalues --    0.66677   0.66816   0.67606   0.68660   0.69222
 Alpha virt. eigenvalues --    0.69375   0.69585   0.69667   0.69982   0.70377
 Alpha virt. eigenvalues --    0.70592   0.71023   0.71344   0.71737   0.71922
 Alpha virt. eigenvalues --    0.71992   0.72312   0.72754   0.73165   0.73427
 Alpha virt. eigenvalues --    0.73920   0.74002   0.74186   0.74329   0.74650
 Alpha virt. eigenvalues --    0.74948   0.75429   0.75737   0.75792   0.76046
 Alpha virt. eigenvalues --    0.76361   0.76872   0.77331   0.77536   0.78370
 Alpha virt. eigenvalues --    0.78485   0.78806   0.79009   0.79215   0.79811
 Alpha virt. eigenvalues --    0.80453   0.81072   0.81908   0.83354   0.84159
 Alpha virt. eigenvalues --    0.84763   0.86764   0.87242   0.87553   0.87937
 Alpha virt. eigenvalues --    0.89336   0.90108   0.90964   0.94467   0.95008
 Alpha virt. eigenvalues --    0.95562   0.96205   0.96785   1.00468   1.01037
 Alpha virt. eigenvalues --    1.03299   1.04050   1.06358   1.06748   1.07112
 Alpha virt. eigenvalues --    1.07436   1.07911   1.10996   1.11663   1.13317
 Alpha virt. eigenvalues --    1.14126   1.15394   1.15925   1.16583   1.18407
 Alpha virt. eigenvalues --    1.19936   1.21264   1.22808   1.23369   1.24065
 Alpha virt. eigenvalues --    1.25308   1.25532   1.25889   1.26619   1.27952
 Alpha virt. eigenvalues --    1.28908   1.29611   1.30255   1.30778   1.31241
 Alpha virt. eigenvalues --    1.33323   1.33594   1.36242   1.36572   1.37314
 Alpha virt. eigenvalues --    1.37444   1.38248   1.38927   1.40329   1.42333
 Alpha virt. eigenvalues --    1.42632   1.43596   1.44603   1.45661   1.47195
 Alpha virt. eigenvalues --    1.48548   1.51557   1.52566   1.53907   1.54484
 Alpha virt. eigenvalues --    1.55403   1.56314   1.56713   1.57474   1.58067
 Alpha virt. eigenvalues --    1.59154   1.59816   1.59824   1.62928   1.64362
 Alpha virt. eigenvalues --    1.66589   1.69788   1.70703   1.71499   1.72860
 Alpha virt. eigenvalues --    1.74021   1.74289   1.74713   1.75166   1.76733
 Alpha virt. eigenvalues --    1.77145   1.77834   1.78532   1.78780   1.79481
 Alpha virt. eigenvalues --    1.79974   1.80402   1.80916   1.81553   1.81851
 Alpha virt. eigenvalues --    1.82113   1.82368   1.82429   1.82708   1.83748
 Alpha virt. eigenvalues --    1.84368   1.84696   1.85133   1.85556   1.86098
 Alpha virt. eigenvalues --    1.86989   1.87764   1.88912   1.89006   1.89637
 Alpha virt. eigenvalues --    1.90457   1.90779   1.91531   1.91634   1.92130
 Alpha virt. eigenvalues --    1.92792   1.93516   1.94265   1.94461   1.95486
 Alpha virt. eigenvalues --    1.96480   1.96584   1.97146   1.97655   1.98094
 Alpha virt. eigenvalues --    1.98762   1.99229   1.99635   2.00678   2.01045
 Alpha virt. eigenvalues --    2.01562   2.02969   2.04397   2.05731   2.06060
 Alpha virt. eigenvalues --    2.06339   2.07490   2.08491   2.09853   2.10081
 Alpha virt. eigenvalues --    2.11555   2.12299   2.12965   2.13768   2.14988
 Alpha virt. eigenvalues --    2.16791   2.17057   2.17833   2.19080   2.20497
 Alpha virt. eigenvalues --    2.22157   2.23842   2.24780   2.24940   2.26100
 Alpha virt. eigenvalues --    2.26557   2.26839   2.27968   2.28543   2.30441
 Alpha virt. eigenvalues --    2.30809   2.33051   2.33388   2.34253   2.35003
 Alpha virt. eigenvalues --    2.35059   2.38446   2.39262   2.39659   2.40989
 Alpha virt. eigenvalues --    2.42601   2.43519   2.44064   2.45081   2.46474
 Alpha virt. eigenvalues --    2.47136   2.47352   2.47787   2.50535   2.51473
 Alpha virt. eigenvalues --    2.52611   2.53126   2.53552   2.55689   2.56111
 Alpha virt. eigenvalues --    2.57912   2.59970   2.60312   2.60650   2.62702
 Alpha virt. eigenvalues --    2.62963   2.64291   2.65595   2.65809   2.66102
 Alpha virt. eigenvalues --    2.67926   2.69348   2.71320   2.71685   2.72849
 Alpha virt. eigenvalues --    2.74282   2.75744   2.76895   2.77369   2.77506
 Alpha virt. eigenvalues --    2.77992   2.79337   2.81008   2.84501   2.85416
 Alpha virt. eigenvalues --    2.85974   2.86523   2.87641   2.89078   2.89635
 Alpha virt. eigenvalues --    2.90086   2.90803   2.91441   2.92006   2.92750
 Alpha virt. eigenvalues --    2.94291   2.95835   2.97198   2.97955   3.00855
 Alpha virt. eigenvalues --    3.02019   3.02557   3.03334   3.03883   3.07352
 Alpha virt. eigenvalues --    3.09846   3.10416   3.10861   3.12486   3.13643
 Alpha virt. eigenvalues --    3.15686   3.17273   3.18006   3.20497   3.21610
 Alpha virt. eigenvalues --    3.25095   3.36634   3.41572   3.46547   3.52481
 Alpha virt. eigenvalues --    3.56760   3.65859   3.69690   3.73687
          Condensed to atoms (all electrons):
               1          2          3          4          5          6
     1  C    4.516182   0.402264   0.402078   0.391947  -0.000001  -0.000000
     2  H    0.402264   0.616960  -0.018068  -0.033161  -0.000003  -0.000000
     3  H    0.402078  -0.018068   0.612028  -0.031471  -0.000010  -0.000000
     4  H    0.391947  -0.033161  -0.031471   0.683341   0.000002   0.000000
     5  C   -0.000001  -0.000003  -0.000010   0.000002   5.589500   0.279674
     6  C   -0.000000  -0.000000  -0.000000   0.000000   0.279674   5.234319
     7  C    0.000000   0.000000   0.000000  -0.000000  -0.014805   0.296379
     8  C   -0.000000   0.000000   0.000000  -0.000000   0.005561   0.308441
     9  C    0.000042   0.000001   0.000012  -0.000005   0.169217   0.010592
    10  C   -0.000000   0.000011   0.000019  -0.000004   0.257087   0.022662
    11  H    0.000101  -0.000005   0.000008   0.000005  -0.058925   0.013450
    12  C    0.000001   0.000000   0.000001  -0.000000   0.002546  -0.109452
    13  H    0.000001   0.000000   0.000000   0.000000   0.014800  -0.001664
    14  C    0.000000   0.000000   0.000000  -0.000000   0.015913  -0.072486
    15  N    0.000000  -0.000000  -0.000000   0.000000  -0.001488  -0.017179
    16  C   -0.000000  -0.000000  -0.000000   0.000000  -0.108432   0.032893
    17  H   -0.000000   0.000000   0.000000  -0.000000  -0.001272   0.012446
    18  C    0.000001   0.000001   0.000001  -0.000000   0.086051  -0.134208
    19  H   -0.000000   0.000000  -0.000000  -0.000000   0.014482  -0.000771
    20  N    0.000000   0.000043   0.000157  -0.000062  -0.126817   0.004446
    21  H   -0.002358  -0.000579  -0.001196   0.000854  -0.032756   0.000935
    22  C    0.000000  -0.000000  -0.000000   0.000000  -0.138311   0.033540
    23  H   -0.000000  -0.000000  -0.000000   0.000000  -0.001133   0.012680
    24  C   -0.000000   0.000000   0.000000  -0.000000   0.011130  -0.061239
    25  O    0.000000   0.000000   0.000000  -0.000000  -0.000087   0.000700
    26  O    0.000000   0.000000  -0.000000   0.000000  -0.000082   0.000561
    27  C    0.010898  -0.000431   0.000792  -0.000652   0.009897  -0.000164
    28  H   -0.000194   0.000011  -0.000050   0.000022  -0.000557   0.000022
    29  H   -0.000218   0.000016   0.000000  -0.000026  -0.000477  -0.000003
    30  N    0.348430  -0.028497  -0.027739  -0.039987   0.000754   0.000007
    31  C   -0.054290   0.007765  -0.003662  -0.008762   0.000179   0.000001
    32  H   -0.003287  -0.000539  -0.002115   0.011869   0.000035   0.000000
    33  H   -0.006085   0.000536   0.006160  -0.003289  -0.000111  -0.000002
    34  C   -0.048684  -0.003501   0.007394  -0.006414  -0.000048  -0.000001
    35  H    0.006575   0.000520  -0.000391  -0.000692  -0.000203  -0.000007
    36  H   -0.004864   0.004803   0.000431  -0.002826  -0.000013  -0.000000
    37  H   -0.003376  -0.002772  -0.000440   0.013875   0.000008   0.000000
    38  C   -0.000000   0.000000   0.000000  -0.000000   0.000098  -0.000104
    39  H    0.000000   0.000000   0.000000  -0.000000   0.000003  -0.000203
    40  H   -0.000000  -0.000000  -0.000000   0.000000   0.000002  -0.000173
    41  C    0.000000  -0.000000  -0.000000   0.000000  -0.000005   0.000206
    42  H   -0.000000  -0.000000  -0.000000   0.000000   0.000003  -0.000020
    43  H    0.000000   0.000000   0.000000  -0.000000   0.000002  -0.000026
    44  C   -0.000000  -0.000000  -0.000000   0.000000   0.000000   0.000001
    45  H    0.000000   0.000000  -0.000000   0.000000  -0.000000   0.000000
    46  H   -0.000000  -0.000000  -0.000000   0.000000  -0.000000  -0.000000
    47  C    0.000000   0.000000   0.000000   0.000000  -0.000000   0.000000
    48  H    0.000000   0.000000   0.000000   0.000000  -0.000000  -0.000000
    49  H    0.000000   0.000000   0.000000   0.000000  -0.000000   0.000000
    50  H    0.000000  -0.000000   0.000000   0.000000   0.000000   0.000000
               7          8          9         10         11         12
     1  C    0.000000  -0.000000   0.000042  -0.000000   0.000101   0.000001
     2  H    0.000000   0.000000   0.000001   0.000011  -0.000005   0.000000
     3  H    0.000000   0.000000   0.000012   0.000019   0.000008   0.000001
     4  H   -0.000000  -0.000000  -0.000005  -0.000004   0.000005  -0.000000
     5  C   -0.014805   0.005561   0.169217   0.257087  -0.058925   0.002546
     6  C    0.296379   0.308441   0.010592   0.022662   0.013450  -0.109452
     7  C    5.907839  -0.078594  -0.170715   0.025233  -0.000090   0.077289
     8  C   -0.078594   5.834330   0.028284  -0.156027  -0.001413  -0.002846
     9  C   -0.170715   0.028284   5.233559  -0.130701  -0.021807   0.222072
    10  C    0.025233  -0.156027  -0.130701   5.271017   0.454394   0.015696
    11  H   -0.000090  -0.001413  -0.021807   0.454394   0.607675  -0.000232
    12  C    0.077289  -0.002846   0.222072   0.015696  -0.000232   5.322032
    13  H    0.015770   0.000021  -0.067972  -0.000048   0.000011   0.471664
    14  C   -0.042965   0.193234   0.000316  -0.003082   0.000031  -0.000334
    15  N   -0.126310  -0.124426  -0.000054  -0.000023  -0.000000   0.000036
    16  C    0.225352   0.013298   0.132888  -0.003431  -0.000056   0.218792
    17  H   -0.084214  -0.000400   0.014283   0.000027  -0.000000  -0.067493
    18  C   -0.003140   0.086144   0.018498   0.274595  -0.056965  -0.000284
    19  H    0.000047   0.014104  -0.000402  -0.064531  -0.011151   0.000003
    20  N   -0.000216  -0.000059   0.520064  -0.002374  -0.003727  -0.098205
    21  H   -0.000199  -0.000002  -0.003891   0.003636   0.004680   0.009020
    22  C    0.014026   0.254163  -0.003218   0.103154   0.013053   0.000133
    23  H   -0.000431  -0.081609   0.000044   0.013211  -0.000194   0.000001
    24  C    0.227540  -0.038513  -0.000528   0.000119   0.000001   0.019394
    25  O    0.000232  -0.143779   0.000001  -0.000042  -0.000000  -0.000000
    26  O   -0.152281   0.000306  -0.000034   0.000001  -0.000000   0.002330
    27  C    0.000071   0.000005  -0.046512   0.000537  -0.000099  -0.000863
    28  H   -0.000083   0.000001  -0.015040  -0.000036  -0.000048   0.008125
    29  H   -0.000037  -0.000000  -0.007090   0.000032   0.000020   0.004857
    30  N   -0.000000  -0.000000  -0.001472  -0.001390   0.001622  -0.000116
    31  C    0.000006  -0.000000   0.010600  -0.000016   0.000288   0.000484
    32  H   -0.000000   0.000000  -0.000379  -0.000017   0.000008  -0.000026
    33  H    0.000000  -0.000000   0.000261   0.000052  -0.000031  -0.000086
    34  C   -0.000000   0.000000  -0.000180   0.000055  -0.000065  -0.000009
    35  H    0.000001   0.000000   0.000317   0.000117  -0.000110  -0.000029
    36  H    0.000000   0.000000   0.000025   0.000024   0.000012   0.000003
    37  H   -0.000000  -0.000000  -0.000033  -0.000009   0.000009  -0.000005
    38  C    0.010063   0.009220   0.000000  -0.000000   0.000000   0.000000
    39  H    0.003883  -0.000379   0.000001  -0.000000   0.000000  -0.000004
    40  H   -0.000389   0.003778  -0.000000   0.000000   0.000000   0.000000
    41  C   -0.001386  -0.001331  -0.000000  -0.000000  -0.000000   0.000000
    42  H   -0.000104   0.000067   0.000000  -0.000000   0.000000  -0.000000
    43  H    0.000084  -0.000130  -0.000000   0.000000   0.000000  -0.000000
    44  C   -0.000004  -0.000004   0.000000   0.000000   0.000000   0.000000
    45  H    0.000000  -0.000003   0.000000  -0.000000  -0.000000  -0.000000
    46  H   -0.000003   0.000000  -0.000000   0.000000   0.000000   0.000000
    47  C   -0.000000  -0.000000  -0.000000  -0.000000  -0.000000  -0.000000
    48  H    0.000000   0.000000   0.000000   0.000000   0.000000   0.000000
    49  H   -0.000000  -0.000000  -0.000000  -0.000000  -0.000000   0.000000
    50  H   -0.000000  -0.000000  -0.000000  -0.000000   0.000000   0.000000
              13         14         15         16         17         18
     1  C    0.000001   0.000000   0.000000  -0.000000  -0.000000   0.000001
     2  H    0.000000   0.000000  -0.000000  -0.000000   0.000000   0.000001
     3  H    0.000000   0.000000  -0.000000  -0.000000   0.000000   0.000001
     4  H    0.000000  -0.000000   0.000000   0.000000  -0.000000  -0.000000
     5  C    0.014800   0.015913  -0.001488  -0.108432  -0.001272   0.086051
     6  C   -0.001664  -0.072486  -0.017179   0.032893   0.012446  -0.134208
     7  C    0.015770  -0.042965  -0.126310   0.225352  -0.084214  -0.003140
     8  C    0.000021   0.193234  -0.124426   0.013298  -0.000400   0.086144
     9  C   -0.067972   0.000316  -0.000054   0.132888   0.014283   0.018498
    10  C   -0.000048  -0.003082  -0.000023  -0.003431   0.000027   0.274595
    11  H    0.000011   0.000031  -0.000000  -0.000056  -0.000000  -0.056965
    12  C    0.471664  -0.000334   0.000036   0.218792  -0.067493  -0.000284
    13  H    0.620369   0.000001   0.000001  -0.077358  -0.011257   0.000001
    14  C    0.000001   4.704986   0.318400   0.001129   0.000064   0.022418
    15  N    0.000001   0.318400   7.085909   0.010220   0.001126   0.000024
    16  C   -0.077358   0.001129   0.010220   5.125607   0.469703   0.000174
    17  H   -0.011257   0.000064   0.001126   0.469703   0.622022   0.000001
    18  C    0.000001   0.022418   0.000024   0.000174   0.000001   5.144329
    19  H   -0.000000  -0.000432   0.000001  -0.000000   0.000000   0.459263
    20  N   -0.017113   0.000000  -0.000000   0.007746  -0.000085   0.001081
    21  H   -0.000152   0.000000   0.000000   0.000127   0.000006  -0.001018
    22  C    0.000000  -0.074745   0.010242  -0.000376   0.000002   0.213971
    23  H    0.000000  -0.012776   0.000985   0.000001  -0.000000  -0.067162
    24  C   -0.000438  -0.039450   0.299419  -0.063036  -0.013268  -0.000295
    25  O    0.000000   0.751457  -0.114116   0.000009   0.000000   0.001814
    26  O   -0.000025  -0.000882  -0.109679   0.017307   0.015548  -0.000000
    27  C    0.008479  -0.000000   0.000000   0.000216  -0.000028   0.000010
    28  H   -0.001046   0.000000   0.000000   0.001188   0.000020   0.000000
    29  H   -0.000917  -0.000000   0.000000   0.000225   0.000008   0.000001
    30  N   -0.000011  -0.000000   0.000000   0.000001  -0.000000  -0.000029
    31  C    0.000707   0.000000   0.000000  -0.000059  -0.000000   0.000002
    32  H   -0.000001  -0.000000   0.000000   0.000001  -0.000000  -0.000000
    33  H   -0.000009  -0.000000  -0.000000  -0.000002   0.000000   0.000002
    34  C   -0.000011   0.000000  -0.000000   0.000001   0.000000   0.000002
    35  H    0.000004   0.000000  -0.000000  -0.000002   0.000000   0.000005
    36  H    0.000000   0.000000  -0.000000  -0.000000   0.000000   0.000002
    37  H   -0.000001  -0.000000   0.000000   0.000000  -0.000000  -0.000000
    38  C   -0.000000  -0.025426   0.216307  -0.000419  -0.000051   0.000001
    39  H   -0.000000   0.005803  -0.023550  -0.000004  -0.000005   0.000000
    40  H    0.000000  -0.010067  -0.023984   0.000007  -0.000001  -0.000003
    41  C    0.000000  -0.004586  -0.031856   0.000027   0.000008   0.000000
    42  H    0.000000  -0.001246  -0.009938  -0.000021  -0.000012  -0.000000
    43  H    0.000000   0.007623  -0.010000  -0.000001   0.000000  -0.000001
    44  C   -0.000000  -0.000093   0.005175  -0.000000   0.000000   0.000000
    45  H    0.000000  -0.000106   0.000102   0.000000   0.000000   0.000000
    46  H    0.000000   0.000062   0.000100   0.000000  -0.000000  -0.000000
    47  C    0.000000  -0.000015  -0.000175   0.000000   0.000000  -0.000000
    48  H   -0.000000   0.000000   0.000004   0.000000   0.000000   0.000000
    49  H   -0.000000  -0.000001   0.000001  -0.000000   0.000000   0.000000
    50  H   -0.000000  -0.000002   0.000001  -0.000000  -0.000000   0.000000
              19         20         21         22         23         24
     1  C   -0.000000   0.000000  -0.002358   0.000000  -0.000000  -0.000000
     2  H    0.000000   0.000043  -0.000579  -0.000000  -0.000000   0.000000
     3  H   -0.000000   0.000157  -0.001196  -0.000000  -0.000000   0.000000
     4  H   -0.000000  -0.000062   0.000854   0.000000   0.000000  -0.000000
     5  C    0.014482  -0.126817  -0.032756  -0.138311  -0.001133   0.011130
     6  C   -0.000771   0.004446   0.000935   0.033540   0.012680  -0.061239
     7  C    0.000047  -0.000216  -0.000199   0.014026  -0.000431   0.227540
     8  C    0.014104  -0.000059  -0.000002   0.254163  -0.081609  -0.038513
     9  C   -0.000402   0.520064  -0.003891  -0.003218   0.000044  -0.000528
    10  C   -0.064531  -0.002374   0.003636   0.103154   0.013211   0.000119
    11  H   -0.011151  -0.003727   0.004680   0.013053  -0.000194   0.000001
    12  C    0.000003  -0.098205   0.009020   0.000133   0.000001   0.019394
    13  H   -0.000000  -0.017113  -0.000152   0.000000   0.000000  -0.000438
    14  C   -0.000432   0.000000   0.000000  -0.074745  -0.012776  -0.039450
    15  N    0.000001  -0.000000   0.000000   0.010242   0.000985   0.299419
    16  C   -0.000000   0.007746   0.000127  -0.000376   0.000001  -0.063036
    17  H    0.000000  -0.000085   0.000006   0.000002  -0.000000  -0.013268
    18  C    0.459263   0.001081  -0.001018   0.213971  -0.067162  -0.000295
    19  H    0.622299   0.000007   0.000038  -0.075611  -0.010711   0.000001
    20  N    0.000007   6.369953   0.352110  -0.000053  -0.000000   0.000018
    21  H    0.000038   0.352110   0.512552   0.000033   0.000000  -0.000000
    22  C   -0.075611  -0.000053   0.000033   5.186213   0.467080   0.001058
    23  H   -0.010711  -0.000000   0.000000   0.467080   0.624633   0.000055
    24  C    0.000001   0.000018  -0.000000   0.001058   0.000055   4.672455
    25  O   -0.000014  -0.000000   0.000000   0.015883   0.013323  -0.000984
    26  O    0.000000  -0.000000  -0.000000   0.000009   0.000000   0.755690
    27  C   -0.000000   0.316703  -0.057458   0.000001   0.000000  -0.000000
    28  H    0.000000  -0.018400   0.005464  -0.000000   0.000000   0.000000
    29  H   -0.000000  -0.037590   0.001747  -0.000000   0.000000   0.000000
    30  N   -0.000000  -0.018729   0.059217   0.000000   0.000000  -0.000000
    31  C   -0.000000  -0.046570  -0.021052   0.000000  -0.000000  -0.000000
    32  H   -0.000000   0.004583   0.003545   0.000000   0.000000  -0.000000
    33  H    0.000000  -0.001405  -0.001921  -0.000000  -0.000000   0.000000
    34  C   -0.000000  -0.002127  -0.001693  -0.000000  -0.000000   0.000000
    35  H    0.000000   0.002597  -0.002811  -0.000000  -0.000000   0.000000
    36  H   -0.000000   0.000114  -0.001065  -0.000000  -0.000000   0.000000
    37  H   -0.000000   0.000117   0.001437   0.000000   0.000000  -0.000000
    38  C   -0.000000   0.000000   0.000000  -0.000406  -0.000036  -0.022837
    39  H    0.000000   0.000000   0.000000   0.000007  -0.000001  -0.008961
    40  H   -0.000000   0.000000   0.000000  -0.000010  -0.000005   0.006158
    41  C    0.000000   0.000000  -0.000000   0.000027   0.000006  -0.005395
    42  H   -0.000000  -0.000000   0.000000  -0.000002   0.000000   0.007473
    43  H   -0.000000   0.000000   0.000000  -0.000022  -0.000011  -0.001334
    44  C   -0.000000  -0.000000   0.000000  -0.000000   0.000000  -0.000091
    45  H    0.000000   0.000000   0.000000  -0.000000  -0.000000   0.000064
    46  H    0.000000  -0.000000  -0.000000   0.000000   0.000000  -0.000108
    47  C    0.000000   0.000000  -0.000000   0.000000   0.000000  -0.000015
    48  H   -0.000000   0.000000   0.000000   0.000000   0.000000   0.000000
    49  H   -0.000000   0.000000  -0.000000  -0.000000  -0.000000  -0.000002
    50  H    0.000000  -0.000000  -0.000000  -0.000000   0.000000  -0.000001
              25         26         27         28         29         30
     1  C    0.000000   0.000000   0.010898  -0.000194  -0.000218   0.348430
     2  H    0.000000   0.000000  -0.000431   0.000011   0.000016  -0.028497
     3  H    0.000000  -0.000000   0.000792  -0.000050   0.000000  -0.027739
     4  H   -0.000000   0.000000  -0.000652   0.000022  -0.000026  -0.039987
     5  C   -0.000087  -0.000082   0.009897  -0.000557  -0.000477   0.000754
     6  C    0.000700   0.000561  -0.000164   0.000022  -0.000003   0.000007
     7  C    0.000232  -0.152281   0.000071  -0.000083  -0.000037  -0.000000
     8  C   -0.143779   0.000306   0.000005   0.000001  -0.000000  -0.000000
     9  C    0.000001  -0.000034  -0.046512  -0.015040  -0.007090  -0.001472
    10  C   -0.000042   0.000001   0.000537  -0.000036   0.000032  -0.001390
    11  H   -0.000000  -0.000000  -0.000099  -0.000048   0.000020   0.001622
    12  C   -0.000000   0.002330  -0.000863   0.008125   0.004857  -0.000116
    13  H    0.000000  -0.000025   0.008479  -0.001046  -0.000917  -0.000011
    14  C    0.751457  -0.000882  -0.000000   0.000000  -0.000000  -0.000000
    15  N   -0.114116  -0.109679   0.000000   0.000000   0.000000   0.000000
    16  C    0.000009   0.017307   0.000216   0.001188   0.000225   0.000001
    17  H    0.000000   0.015548  -0.000028   0.000020   0.000008  -0.000000
    18  C    0.001814  -0.000000   0.000010   0.000000   0.000001  -0.000029
    19  H   -0.000014   0.000000  -0.000000   0.000000  -0.000000  -0.000000
    20  N   -0.000000  -0.000000   0.316703  -0.018400  -0.037590  -0.018729
    21  H    0.000000  -0.000000  -0.057458   0.005464   0.001747   0.059217
    22  C    0.015883   0.000009   0.000001  -0.000000  -0.000000   0.000000
    23  H    0.013323   0.000000   0.000000   0.000000   0.000000   0.000000
    24  C   -0.000984   0.755690  -0.000000   0.000000   0.000000  -0.000000
    25  O    7.811965  -0.000022   0.000000   0.000000  -0.000000  -0.000000
    26  O   -0.000022   7.811676   0.000000   0.000000   0.000000  -0.000000
    27  C    0.000000   0.000000   4.652531   0.393261   0.384667  -0.077790
    28  H    0.000000   0.000000   0.393261   0.596911  -0.033788   0.005073
    29  H   -0.000000   0.000000   0.384667  -0.033788   0.626995  -0.007127
    30  N   -0.000000  -0.000000  -0.077790   0.005073  -0.007127   6.764118
    31  C   -0.000000   0.000000   0.376737  -0.016466  -0.008966   0.328658
    32  H    0.000000  -0.000000  -0.034961  -0.000461  -0.005916  -0.034268
    33  H    0.000000  -0.000000  -0.016926  -0.011516   0.007274  -0.035782
    34  C   -0.000000  -0.000000   0.002968   0.000032   0.002863   0.326218
    35  H    0.000000  -0.000000   0.014795   0.000266  -0.003430  -0.028108
    36  H    0.000000  -0.000000  -0.000054  -0.000002  -0.000207  -0.026448
    37  H   -0.000000   0.000000  -0.007316   0.000090   0.000425  -0.042050
    38  C    0.000927   0.002125  -0.000000  -0.000000   0.000000  -0.000000
    39  H    0.000515   0.017151   0.000000   0.000000  -0.000000   0.000000
    40  H    0.016628   0.000527  -0.000000  -0.000000   0.000000  -0.000000
    41  C   -0.006299  -0.006793   0.000000   0.000000  -0.000000   0.000000
    42  H    0.000125   0.007171  -0.000000  -0.000000   0.000000  -0.000000
    43  H    0.007090   0.000122  -0.000000   0.000000  -0.000000  -0.000000
    44  C   -0.000203  -0.000156  -0.000000  -0.000000   0.000000  -0.000000
    45  H    0.000053  -0.000007   0.000000   0.000000  -0.000000   0.000000
    46  H   -0.000008   0.000039  -0.000000  -0.000000   0.000000  -0.000000
    47  C    0.000002   0.000001   0.000000   0.000000  -0.000000   0.000000
    48  H   -0.000000  -0.000000  -0.000000  -0.000000   0.000000   0.000000
    49  H    0.000000  -0.000008   0.000000   0.000000  -0.000000   0.000000
    50  H   -0.000009   0.000000  -0.000000  -0.000000   0.000000  -0.000000
              31         32         33         34         35         36
     1  C   -0.054290  -0.003287  -0.006085  -0.048684   0.006575  -0.004864
     2  H    0.007765  -0.000539   0.000536  -0.003501   0.000520   0.004803
     3  H   -0.003662  -0.002115   0.006160   0.007394  -0.000391   0.000431
     4  H   -0.008762   0.011869  -0.003289  -0.006414  -0.000692  -0.002826
     5  C    0.000179   0.000035  -0.000111  -0.000048  -0.000203  -0.000013
     6  C    0.000001   0.000000  -0.000002  -0.000001  -0.000007  -0.000000
     7  C    0.000006  -0.000000   0.000000  -0.000000   0.000001   0.000000
     8  C   -0.000000   0.000000  -0.000000   0.000000   0.000000   0.000000
     9  C    0.010600  -0.000379   0.000261  -0.000180   0.000317   0.000025
    10  C   -0.000016  -0.000017   0.000052   0.000055   0.000117   0.000024
    11  H    0.000288   0.000008  -0.000031  -0.000065  -0.000110   0.000012
    12  C    0.000484  -0.000026  -0.000086  -0.000009  -0.000029   0.000003
    13  H    0.000707  -0.000001  -0.000009  -0.000011   0.000004   0.000000
    14  C    0.000000  -0.000000  -0.000000   0.000000   0.000000   0.000000
    15  N    0.000000   0.000000  -0.000000  -0.000000  -0.000000  -0.000000
    16  C   -0.000059   0.000001  -0.000002   0.000001  -0.000002  -0.000000
    17  H   -0.000000  -0.000000   0.000000   0.000000   0.000000   0.000000
    18  C    0.000002  -0.000000   0.000002   0.000002   0.000005   0.000002
    19  H   -0.000000  -0.000000   0.000000  -0.000000   0.000000  -0.000000
    20  N   -0.046570   0.004583  -0.001405  -0.002127   0.002597   0.000114
    21  H   -0.021052   0.003545  -0.001921  -0.001693  -0.002811  -0.001065
    22  C    0.000000   0.000000  -0.000000  -0.000000  -0.000000  -0.000000
    23  H   -0.000000   0.000000  -0.000000  -0.000000  -0.000000  -0.000000
    24  C   -0.000000  -0.000000   0.000000   0.000000   0.000000   0.000000
    25  O   -0.000000   0.000000   0.000000  -0.000000   0.000000   0.000000
    26  O    0.000000  -0.000000  -0.000000  -0.000000  -0.000000  -0.000000
    27  C    0.376737  -0.034961  -0.016926   0.002968   0.014795  -0.000054
    28  H   -0.016466  -0.000461  -0.011516   0.000032   0.000266  -0.000002
    29  H   -0.008966  -0.005916   0.007274   0.002863  -0.003430  -0.000207
    30  N    0.328658  -0.034268  -0.035782   0.326218  -0.028108  -0.026448
    31  C    4.660840   0.384146   0.394926  -0.059146  -0.012867   0.008395
    32  H    0.384146   0.659083  -0.027543  -0.007729  -0.003045  -0.000154
    33  H    0.394926  -0.027543   0.627906   0.008413   0.000122  -0.000403
    34  C   -0.059146  -0.007729   0.008413   4.552468   0.405963   0.399702
    35  H   -0.012867  -0.003045   0.000122   0.405963   0.605294  -0.015816
    36  H    0.008395  -0.000154  -0.000403   0.399702  -0.015816   0.611971
    37  H   -0.001548   0.013104  -0.000490   0.390147  -0.033486  -0.029754
    38  C   -0.000000  -0.000000   0.000000   0.000000  -0.000000   0.000000
    39  H   -0.000000  -0.000000  -0.000000  -0.000000   0.000000  -0.000000
    40  H    0.000000   0.000000   0.000000  -0.000000  -0.000000   0.000000
    41  C   -0.000000  -0.000000  -0.000000  -0.000000   0.000000  -0.000000
    42  H    0.000000   0.000000   0.000000   0.000000  -0.000000   0.000000
    43  H   -0.000000  -0.000000  -0.000000  -0.000000   0.000000   0.000000
    44  C    0.000000   0.000000   0.000000   0.000000  -0.000000   0.000000
    45  H   -0.000000  -0.000000  -0.000000  -0.000000   0.000000  -0.000000
    46  H    0.000000   0.000000   0.000000   0.000000  -0.000000   0.000000
    47  C   -0.000000  -0.000000  -0.000000  -0.000000   0.000000  -0.000000
    48  H    0.000000   0.000000   0.000000  -0.000000  -0.000000   0.000000
    49  H   -0.000000  -0.000000  -0.000000  -0.000000   0.000000  -0.000000
    50  H    0.000000   0.000000   0.000000   0.000000  -0.000000   0.000000
              37         38         39         40         41         42
     1  C   -0.003376  -0.000000   0.000000  -0.000000   0.000000  -0.000000
     2  H   -0.002772   0.000000   0.000000  -0.000000  -0.000000  -0.000000
     3  H   -0.000440   0.000000   0.000000  -0.000000  -0.000000  -0.000000
     4  H    0.013875  -0.000000  -0.000000   0.000000   0.000000   0.000000
     5  C    0.000008   0.000098   0.000003   0.000002  -0.000005   0.000003
     6  C    0.000000  -0.000104  -0.000203  -0.000173   0.000206  -0.000020
     7  C   -0.000000   0.010063   0.003883  -0.000389  -0.001386  -0.000104
     8  C   -0.000000   0.009220  -0.000379   0.003778  -0.001331   0.000067
     9  C   -0.000033   0.000000   0.000001  -0.000000  -0.000000   0.000000
    10  C   -0.000009  -0.000000  -0.000000   0.000000  -0.000000  -0.000000
    11  H    0.000009   0.000000   0.000000   0.000000  -0.000000   0.000000
    12  C   -0.000005   0.000000  -0.000004   0.000000   0.000000  -0.000000
    13  H   -0.000001  -0.000000  -0.000000   0.000000   0.000000   0.000000
    14  C   -0.000000  -0.025426   0.005803  -0.010067  -0.004586  -0.001246
    15  N    0.000000   0.216307  -0.023550  -0.023984  -0.031856  -0.009938
    16  C    0.000000  -0.000419  -0.000004   0.000007   0.000027  -0.000021
    17  H   -0.000000  -0.000051  -0.000005  -0.000001   0.000008  -0.000012
    18  C   -0.000000   0.000001   0.000000  -0.000003   0.000000  -0.000000
    19  H   -0.000000  -0.000000   0.000000  -0.000000   0.000000  -0.000000
    20  N    0.000117   0.000000   0.000000   0.000000   0.000000  -0.000000
    21  H    0.001437   0.000000   0.000000   0.000000  -0.000000   0.000000
    22  C    0.000000  -0.000406   0.000007  -0.000010   0.000027  -0.000002
    23  H    0.000000  -0.000036  -0.000001  -0.000005   0.000006   0.000000
    24  C   -0.000000  -0.022837  -0.008961   0.006158  -0.005395   0.007473
    25  O   -0.000000   0.000927   0.000515   0.016628  -0.006299   0.000125
    26  O    0.000000   0.002125   0.017151   0.000527  -0.006793   0.007171
    27  C   -0.007316  -0.000000   0.000000  -0.000000   0.000000  -0.000000
    28  H    0.000090  -0.000000   0.000000  -0.000000   0.000000  -0.000000
    29  H    0.000425   0.000000  -0.000000   0.000000  -0.000000   0.000000
    30  N   -0.042050  -0.000000   0.000000  -0.000000   0.000000  -0.000000
    31  C   -0.001548  -0.000000  -0.000000   0.000000  -0.000000   0.000000
    32  H    0.013104  -0.000000  -0.000000   0.000000  -0.000000   0.000000
    33  H   -0.000490   0.000000  -0.000000   0.000000  -0.000000   0.000000
    34  C    0.390147   0.000000  -0.000000  -0.000000  -0.000000   0.000000
    35  H   -0.033486  -0.000000   0.000000  -0.000000   0.000000  -0.000000
    36  H   -0.029754   0.000000  -0.000000   0.000000  -0.000000   0.000000
    37  H    0.672028  -0.000000   0.000000  -0.000000   0.000000  -0.000000
    38  C   -0.000000   4.632173   0.373604   0.373562   0.388328  -0.013840
    39  H    0.000000   0.373604   0.620920  -0.023207  -0.017903  -0.011261
    40  H   -0.000000   0.373562  -0.023207   0.630340  -0.019325   0.007917
    41  C    0.000000   0.388328  -0.017903  -0.019325   4.759737   0.370329
    42  H   -0.000000  -0.013840  -0.011261   0.007917   0.370329   0.654528
    43  H   -0.000000  -0.015646   0.007863  -0.011662   0.370414  -0.030378
    44  C   -0.000000  -0.049694  -0.004078  -0.004084   0.409702  -0.022025
    45  H    0.000000  -0.006570  -0.001756   0.007234  -0.027014   0.008198
    46  H   -0.000000  -0.006302   0.007013  -0.001762  -0.027021  -0.009983
    47  C    0.000000   0.009356   0.000074   0.000066  -0.060714  -0.004173
    48  H    0.000000  -0.000489   0.000013   0.000014   0.008112  -0.000085
    49  H    0.000000   0.000371  -0.000049   0.000023  -0.007776   0.006391
    50  H   -0.000000   0.000378   0.000022  -0.000049  -0.008028  -0.001471
              43         44         45         46         47         48
     1  C    0.000000  -0.000000   0.000000  -0.000000   0.000000   0.000000
     2  H    0.000000  -0.000000   0.000000  -0.000000   0.000000   0.000000
     3  H    0.000000  -0.000000  -0.000000  -0.000000   0.000000   0.000000
     4  H   -0.000000   0.000000   0.000000   0.000000   0.000000   0.000000
     5  C    0.000002   0.000000  -0.000000  -0.000000  -0.000000  -0.000000
     6  C   -0.000026   0.000001   0.000000  -0.000000   0.000000  -0.000000
     7  C    0.000084  -0.000004   0.000000  -0.000003  -0.000000   0.000000
     8  C   -0.000130  -0.000004  -0.000003   0.000000  -0.000000   0.000000
     9  C   -0.000000   0.000000   0.000000  -0.000000  -0.000000   0.000000
    10  C    0.000000   0.000000  -0.000000   0.000000  -0.000000   0.000000
    11  H    0.000000   0.000000  -0.000000   0.000000  -0.000000   0.000000
    12  C   -0.000000   0.000000  -0.000000   0.000000  -0.000000   0.000000
    13  H    0.000000  -0.000000   0.000000   0.000000   0.000000  -0.000000
    14  C    0.007623  -0.000093  -0.000106   0.000062  -0.000015   0.000000
    15  N   -0.010000   0.005175   0.000102   0.000100  -0.000175   0.000004
    16  C   -0.000001  -0.000000   0.000000   0.000000   0.000000   0.000000
    17  H    0.000000   0.000000   0.000000  -0.000000   0.000000   0.000000
    18  C   -0.000001   0.000000   0.000000  -0.000000  -0.000000   0.000000
    19  H   -0.000000  -0.000000   0.000000   0.000000   0.000000  -0.000000
    20  N    0.000000  -0.000000   0.000000  -0.000000   0.000000   0.000000
    21  H    0.000000   0.000000   0.000000  -0.000000  -0.000000   0.000000
    22  C   -0.000022  -0.000000  -0.000000   0.000000   0.000000   0.000000
    23  H   -0.000011   0.000000  -0.000000   0.000000   0.000000   0.000000
    24  C   -0.001334  -0.000091   0.000064  -0.000108  -0.000015   0.000000
    25  O    0.007090  -0.000203   0.000053  -0.000008   0.000002  -0.000000
    26  O    0.000122  -0.000156  -0.000007   0.000039   0.000001  -0.000000
    27  C   -0.000000  -0.000000   0.000000  -0.000000   0.000000  -0.000000
    28  H    0.000000  -0.000000   0.000000  -0.000000   0.000000  -0.000000
    29  H   -0.000000   0.000000  -0.000000   0.000000  -0.000000   0.000000
    30  N   -0.000000  -0.000000   0.000000  -0.000000   0.000000   0.000000
    31  C   -0.000000   0.000000  -0.000000   0.000000  -0.000000   0.000000
    32  H   -0.000000   0.000000  -0.000000   0.000000  -0.000000   0.000000
    33  H   -0.000000   0.000000  -0.000000   0.000000  -0.000000   0.000000
    34  C   -0.000000   0.000000  -0.000000   0.000000  -0.000000  -0.000000
    35  H    0.000000  -0.000000   0.000000  -0.000000   0.000000  -0.000000
    36  H    0.000000   0.000000  -0.000000   0.000000  -0.000000   0.000000
    37  H   -0.000000  -0.000000   0.000000  -0.000000   0.000000   0.000000
    38  C   -0.015646  -0.049694  -0.006570  -0.006302   0.009356  -0.000489
    39  H    0.007863  -0.004078  -0.001756   0.007013   0.000074   0.000013
    40  H   -0.011662  -0.004084   0.007234  -0.001762   0.000066   0.000014
    41  C    0.370414   0.409702  -0.027014  -0.027021  -0.060714   0.008112
    42  H   -0.030378  -0.022025   0.008198  -0.009983  -0.004173  -0.000085
    43  H    0.664334  -0.023139  -0.010014   0.008318  -0.004117  -0.000086
    44  C   -0.023139   4.666807   0.386613   0.387251   0.424313  -0.017500
    45  H   -0.010014   0.386613   0.664306  -0.031006  -0.025870  -0.005499
    46  H    0.008318   0.387251  -0.031006   0.660533  -0.025428  -0.005483
    47  C   -0.004117   0.424313  -0.025870  -0.025428   4.583635   0.388677
    48  H   -0.000086  -0.017500  -0.005499  -0.005483   0.388677   0.628701
    49  H   -0.001507  -0.023559   0.007692  -0.008610   0.397431  -0.022646
    50  H    0.006521  -0.023681  -0.008673   0.007662   0.397132  -0.022796
              49         50
     1  C    0.000000   0.000000
     2  H    0.000000  -0.000000
     3  H    0.000000   0.000000
     4  H    0.000000   0.000000
     5  C   -0.000000   0.000000
     6  C    0.000000   0.000000
     7  C   -0.000000  -0.000000
     8  C   -0.000000  -0.000000
     9  C   -0.000000  -0.000000
    10  C   -0.000000  -0.000000
    11  H   -0.000000   0.000000
    12  C    0.000000   0.000000
    13  H   -0.000000  -0.000000
    14  C   -0.000001  -0.000002
    15  N    0.000001   0.000001
    16  C   -0.000000  -0.000000
    17  H    0.000000  -0.000000
    18  C    0.000000   0.000000
    19  H   -0.000000   0.000000
    20  N    0.000000  -0.000000
    21  H   -0.000000  -0.000000
    22  C   -0.000000  -0.000000
    23  H   -0.000000   0.000000
    24  C   -0.000002  -0.000001
    25  O    0.000000  -0.000009
    26  O   -0.000008   0.000000
    27  C    0.000000  -0.000000
    28  H    0.000000  -0.000000
    29  H   -0.000000   0.000000
    30  N    0.000000  -0.000000
    31  C   -0.000000   0.000000
    32  H   -0.000000   0.000000
    33  H   -0.000000   0.000000
    34  C   -0.000000   0.000000
    35  H    0.000000  -0.000000
    36  H   -0.000000   0.000000
    37  H    0.000000  -0.000000
    38  C    0.000371   0.000378
    39  H   -0.000049   0.000022
    40  H    0.000023  -0.000049
    41  C   -0.007776  -0.008028
    42  H    0.006391  -0.001471
    43  H   -0.001507   0.006521
    44  C   -0.023559  -0.023681
    45  H    0.007692  -0.008673
    46  H   -0.008610   0.007662
    47  C    0.397431   0.397132
    48  H   -0.022646  -0.022796
    49  H    0.630776  -0.024806
    50  H   -0.024806   0.633278
 Mulliken charges:
               1
     1  C    0.044836
     2  H    0.054626
     3  H    0.056060
     4  H    0.025437
     5  C    0.028591
     6  C    0.133750
     7  C   -0.127847
     8  C   -0.121438
     9  C    0.108954
    10  C   -0.079947
    11  H    0.059551
    12  C   -0.094496
    13  H    0.046194
    14  C    0.267256
    15  N   -0.355275
    16  C   -0.003713
    17  H    0.042822
    18  C   -0.045287
    19  H    0.053382
    20  N   -0.206207
    21  H    0.172750
    22  C   -0.019841
    23  H    0.042050
    24  C    0.255918
    25  O   -0.355161
    26  O   -0.360596
    27  C    0.070684
    28  H    0.087201
    29  H    0.076664
    30  N   -0.464558
    31  C    0.059673
    32  H    0.044067
    33  H    0.059948
    34  C    0.033384
    35  H    0.064419
    36  H    0.056123
    37  H    0.030038
    38  C    0.125309
    39  H    0.054490
    40  H    0.048464
    41  C   -0.081464
    42  H    0.042357
    43  H    0.035702
    44  C   -0.111549
    45  H    0.042256
    46  H    0.044737
    47  C   -0.080178
    48  H    0.049062
    49  H    0.046280
    50  H    0.044522
 Sum of Mulliken charges =  -0.00000
 Mulliken charges with hydrogens summed into heavy atoms:
               1
     1  C    0.180959
     5  C    0.028591
     6  C    0.133750
     7  C   -0.127847
     8  C   -0.121438
     9  C    0.108954
    10  C   -0.020396
    12  C   -0.048302
    14  C    0.267256
    15  N   -0.355275
    16  C    0.039109
    18  C    0.008096
    20  N   -0.033457
    22  C    0.022210
    24  C    0.255918
    25  O   -0.355161
    26  O   -0.360596
    27  C    0.234549
    30  N   -0.464558
    31  C    0.163688
    34  C    0.183965
    38  C    0.228263
    41  C   -0.003404
    44  C   -0.024556
    47  C    0.059685
 Electronic spatial extent (au):  <R**2>=          13338.1481
 Charge=             -0.0000 electrons
 Dipole moment (field-independent basis, Debye):
    X=             14.1187    Y=             -0.7681    Z=              1.1018  Tot=             14.1825
 Quadrupole moment (field-independent basis, Debye-Ang):
   XX=           -114.9505   YY=           -151.9308   ZZ=           -150.9439
   XY=             -1.6690   XZ=             -1.3402   YZ=              0.3391
 Traceless Quadrupole moment (field-independent basis, Debye-Ang):
   XX=             24.3246   YY=            -12.6557   ZZ=            -11.6689
   XY=             -1.6690   XZ=             -1.3402   YZ=              0.3391
 Octapole moment (field-independent basis, Debye-Ang**2):
  XXX=            266.2452  YYY=              6.9270  ZZZ=              4.1865  XYY=             92.2788
  XXY=            -36.8897  XXZ=             12.6495  XZZ=             13.1997  YZZ=             -3.2716
  YYZ=              7.7575  XYZ=              5.4230
 Hexadecapole moment (field-independent basis, Debye-Ang**3):
 XXXX=         -13636.3117 YYYY=          -1983.2528 ZZZZ=           -719.3109 XXXY=             54.5711
 XXXZ=             76.1471 YYYX=             -9.5092 YYYZ=             13.7313 ZZZX=             49.1913
 ZZZY=              4.8581 XXYY=          -2953.6053 XXZZ=          -2600.7454 YYZZ=           -483.5078
 XXYZ=             17.4991 YYXZ=            -26.3184 ZZXY=             -5.4266
 N-N= 2.130088479122D+03 E-N=-6.791080467728D+03  KE= 1.079063788555D+03
 Unable to Open any file for archive entry.
 1\1\GINC-X1003C3S5B1N0\SP\RM062X\def2SVP\C20H25N3O2\1008721\10-Oct-202
 5\0\\# m062x/def2svp geom=check guess=read SCRF=(SMD, solvent=ethanol,
  NonEq=Read)\\BN-1_ethanol_m062x_m062x_m062x\\0,1\C,0,7.046477,0.912
 716,0.180508\H,0,7.129886,1.799707,0.824446\H,0,6.972422,1.249487,-0.8
 63272\H,0,7.980351,0.322626,0.287273\C,0,1.160861,0.538383,-0.255138\C
 ,0,-0.252097,0.361051,-0.358225\C,0,-0.801238,-0.937232,-0.478253\C,0,
 -1.111737,1.490874,-0.337097\C,0,1.990799,-0.655242,-0.282471\C,0,1.68
 456,1.834902,-0.137464\H,0,2.756972,2.017723,-0.066725\C,0,1.389131,-1
 .954515,-0.401862\H,0,2.031029,-2.835129,-0.405401\C,0,-2.546097,1.328
 434,-0.444084\N,0,-3.034784,0.01908,-0.599369\C,0,0.028909,-2.095801,-
 0.495363\H,0,-0.433982,-3.077706,-0.580718\C,0,0.81033,2.950576,-0.111
 468\H,0,1.237212,3.950543,-0.015043\N,0,3.314277,-0.532174,-0.193523\H
 ,0,3.727194,0.384754,-0.009338\C,0,-0.555434,2.794601,-0.206395\H,0,-1
 .226178,3.653569,-0.187125\C,0,-2.259564,-1.120371,-0.577106\O,0,-3.34
 3826,2.269863,-0.408762\O,0,-2.763184,-2.239918,-0.642003\C,0,4.291318
 ,-1.599845,-0.197876\H,0,4.103603,-2.287972,-1.035414\H,0,4.209434,-2.
 188727,0.732657\N,0,5.866828,0.14899,0.543134\C,0,5.676961,-0.981625,-
 0.349641\H,0,6.43518,-1.776213,-0.19377\H,0,5.788409,-0.61772,-1.38214
 5\C,0,5.910992,-0.249471,1.939066\H,0,4.969737,-0.731421,2.240123\H,0,
 6.046199,0.638897,2.57178\H,0,6.743591,-0.952936,2.148775\C,0,-4.48468
 9,-0.152861,-0.702099\H,0,-4.667222,-1.045586,-1.311991\H,0,-4.881167,
 0.721916,-1.229751\C,0,-5.148444,-0.295536,0.662128\H,0,-4.709295,-1.1
 61225,1.185921\H,0,-4.920212,0.600211,1.263595\C,0,-6.658833,-0.47146,
 0.550814\H,0,-7.083672,0.389364,0.007686\H,0,-6.875319,-1.361256,-0.06
 3919\C,0,-7.335152,-0.607132,1.908946\H,0,-8.422906,-0.733326,1.807641
 \H,0,-6.945395,-1.477941,2.458509\H,0,-7.156342,0.28486,2.529097\\Vers
 ion=ES64L-G16RevC.01\State=1-A\HF=-1090.6985071\RMSD=3.494e-09\Dipole=
 5.5547305,-0.3022062,0.4334812\Quadrupole=18.084745,-9.4092225,-8.6755
 224,-1.2408801,-0.9964386,0.2520827\PG=C01 [X(C20H25N3O2)]\\@
 The archive entry for this job was punched.


 FIREWORKS ENDED
 AND SPECTATORS GONE AWAY....
 AH, HOW VAST AND DARK
                     SHIKI
 Job cpu time:       0 days  0 hours 41 minutes 11.4 seconds.
 Elapsed time:       0 days  0 hours  1 minutes 21.0 seconds.
 File lengths (MBytes):  RWF=    881 Int=      0 D2E=      0 Chk=     44 Scr=      1
 Normal termination of Gaussian 16 at Fri Oct 10 13:40:42 2025.
