 Entering Gaussian System, Link 0=g16
 Initial command:
 /home/users/sutd/1008721/g16/l1.exe "/home/users/sutd/1008721/scratch/g16/scratch/Gau-566619.inp" -scrdir="/home/users/sutd/1008721/scratch/g16/scratch/"
 Entering Link 1 = /home/users/sutd/1008721/g16/l1.exe PID=    566620.
  
 Copyright (c) 1988-2019, Gaussian, Inc.  All Rights Reserved.
  
 This is part of the Gaussian(R) 16 program.  It is based on
 the Gaussian(R) 09 system (copyright 2009, Gaussian, Inc.),
 the Gaussian(R) 03 system (copyright 2003, Gaussian, Inc.),
 the Gaussian(R) 98 system (copyright 1998, Gaussian, Inc.),
 the Gaussian(R) 94 system (copyright 1995, Gaussian, Inc.),
 the Gaussian 92(TM) system (copyright 1992, Gaussian, Inc.),
 the Gaussian 90(TM) system (copyright 1990, Gaussian, Inc.),
 the Gaussian 88(TM) system (copyright 1988, Gaussian, Inc.),
 the Gaussian 86(TM) system (copyright 1986, Carnegie Mellon
 University), and the Gaussian 82(TM) system (copyright 1983,
 Carnegie Mellon University). Gaussian is a federally registered
 trademark of Gaussian, Inc.
  
 This software contains proprietary and confidential information,
 including trade secrets, belonging to Gaussian, Inc.
  
 This software is provided under written license and may be
 used, copied, transmitted, or stored only in accord with that
 written license.
  
 The following legend is applicable only to US Government
 contracts under FAR:
  
                    RESTRICTED RIGHTS LEGEND
  
 Use, reproduction and disclosure by the US Government is
 subject to restrictions as set forth in subparagraphs (a)
 and (c) of the Commercial Computer Software - Restricted
 Rights clause in FAR 52.227-19.
  
 Gaussian, Inc.
 340 Quinnipiac St., Bldg. 40, Wallingford CT 06492
  
  
 ---------------------------------------------------------------
 Warning -- This program may not be used in any manner that
 competes with the business of Gaussian, Inc. or will provide
 assistance to any competitor of Gaussian, Inc.  The licensee
 of this program is prohibited from giving any competitor of
 Gaussian, Inc. access to this program.  By using this program,
 the user acknowledges that Gaussian, Inc. is engaged in the
 business of creating and licensing software in the field of
 computational chemistry and represents and warrants to the
 licensee that it is not a competitor of Gaussian, Inc. and that
 it will not use this program in any manner prohibited above.
 ---------------------------------------------------------------
  

 Cite this work as:
 Gaussian 16, Revision C.01,
 M. J. Frisch, G. W. Trucks, H. B. Schlegel, G. E. Scuseria, 
 M. A. Robb, J. R. Cheeseman, G. Scalmani, V. Barone, 
 G. A. Petersson, H. Nakatsuji, X. Li, M. Caricato, A. V. Marenich, 
 J. Bloino, B. G. Janesko, R. Gomperts, B. Mennucci, H. P. Hratchian, 
 J. V. Ortiz, A. F. Izmaylov, J. L. Sonnenberg, D. Williams-Young, 
 F. Ding, F. Lipparini, F. Egidi, J. Goings, B. Peng, A. Petrone, 
 T. Henderson, D. Ranasinghe, V. G. Zakrzewski, J. Gao, N. Rega, 
 G. Zheng, W. Liang, M. Hada, M. Ehara, K. Toyota, R. Fukuda, 
 J. Hasegawa, M. Ishida, T. Nakajima, Y. Honda, O. Kitao, H. Nakai, 
 T. Vreven, K. Throssell, J. A. Montgomery, Jr., J. E. Peralta, 
 F. Ogliaro, M. J. Bearpark, J. J. Heyd, E. N. Brothers, K. N. Kudin, 
 V. N. Staroverov, T. A. Keith, R. Kobayashi, J. Normand, 
 K. Raghavachari, A. P. Rendell, J. C. Burant, S. S. Iyengar, 
 J. Tomasi, M. Cossi, J. M. Millam, M. Klene, C. Adamo, R. Cammi, 
 J. W. Ochterski, R. L. Martin, K. Morokuma, O. Farkas, 
 J. B. Foresman, and D. J. Fox, Gaussian, Inc., Wallingford CT, 2019.
 
 ******************************************
 Gaussian 16:  ES64L-G16RevC.01  3-Jul-2019
                10-Oct-2025 
 ******************************************
 %nprocshared=32
 Will use up to   32 processors via shared memory.
 %mem=64GB
 %oldchk=06BDP-NH2_ethanol_wb97xd_wb97xd_wb97xd.chk
 %chk=07BDP-NH2_ethanol_wb97xd_wb97xd_wb97xd.chk
 Copying data from "06BDP-NH2_ethanol_wb97xd_wb97xd_wb97xd.chk" to current chk file "07BDP-NH2_ethanol_wb97xd_wb97xd_wb97xd.chk"
 IOpt=  2 FromEx=T IUOpen= 4 IOptOp= 5 NList=   0 IFRang= 0 IUIn= 4 IUOut= 2.
 ----------------------------------------------------------------------
 # wb97xd/def2svp geom=check guess=read SCRF=(SMD, solvent=ethanol, Non
 Eq=Read)
 ----------------------------------------------------------------------
 1/29=2,38=1,172=1/1;
 2/12=2,40=1/2;
 3/5=43,7=101,11=2,14=-4,25=1,30=1,70=6032201,72=4,74=-58,116=-2/1,2,3;
 4/5=1/1;
 5/5=2,38=6,53=4/2;
 6/7=2,8=2,9=2,10=2,28=1/1;
 99/5=1,9=1/99;
 ------------------------------------
 BDP-NH2_ethanol_wb97xd_wb97xd_wb97xd
 ------------------------------------
 Structure from the checkpoint file:  "07BDP-NH2_ethanol_wb97xd_wb97xd_wb97xd.chk"
 Charge =  0 Multiplicity = 1
 Z-Matrix found in chk file.
 C,0,-0.619573,1.230661,-0.02482
 C,0,-0.619396,-1.23053,-0.027405
 C,0,0.09279,0.000105,-0.015291
 C,0,-0.169924,2.570715,-0.048718
 C,0,-1.321889,3.391935,-0.064267
 C,0,-2.427294,2.546153,-0.048856
 H,0,-1.351805,4.481031,-0.087539
 C,0,-2.4269,-2.546288,-0.053188
 C,0,-0.169528,-2.570484,-0.052793
 C,0,-1.321357,-3.391868,-0.069588
 H,0,-1.351091,-4.480946,-0.09391
 N,0,-2.009013,1.241292,-0.024374
 N,0,-2.008837,-1.241381,-0.027257
 B,0,-2.917092,-0.000194,0.050143
 F,0,-3.655205,-0.001637,1.256926
 F,0,-3.848173,0.000984,-1.01061
 C,0,1.574783,0.000149,-0.003434
 C,0,2.312039,0.006553,-1.221561
 C,0,2.288943,-0.005981,1.228456
 C,0,3.686219,0.007326,-1.223117
 H,0,1.767623,0.011495,-2.167546
 C,0,3.662602,-0.006907,1.255773
 H,0,1.726691,-0.010685,2.163948
 C,0,4.396489,0.000022,0.023255
 H,0,4.254689,0.013226,-2.155167
 H,0,4.214234,-0.012637,2.197961
 H,0,0.871266,-2.890132,-0.063337
 H,0,-3.487985,-2.792314,-0.057209
 H,0,0.870812,2.890536,-0.059656
 H,0,-3.488421,2.791992,-0.053144
 N,0,5.726341,-0.000351,0.036858
 H,0,6.241988,-0.005745,0.915609
 H,0,6.260394,0.004719,-0.83083
 Recover connectivity data from disk.
                          Input orientation:                          
 ---------------------------------------------------------------------
 Center     Atomic      Atomic             Coordinates (Angstroms)
 Number     Number       Type             X           Y           Z
 ---------------------------------------------------------------------
      1          6           0       -0.619573    1.230661   -0.024820
      2          6           0       -0.619396   -1.230530   -0.027405
      3          6           0        0.092790    0.000105   -0.015291
      4          6           0       -0.169924    2.570715   -0.048718
      5          6           0       -1.321889    3.391935   -0.064267
      6          6           0       -2.427294    2.546153   -0.048856
      7          1           0       -1.351805    4.481031   -0.087539
      8          6           0       -2.426900   -2.546288   -0.053188
      9          6           0       -0.169528   -2.570484   -0.052793
     10          6           0       -1.321357   -3.391868   -0.069588
     11          1           0       -1.351091   -4.480946   -0.093910
     12          7           0       -2.009013    1.241292   -0.024374
     13          7           0       -2.008837   -1.241381   -0.027257
     14          5           0       -2.917092   -0.000194    0.050143
     15          9           0       -3.655205   -0.001637    1.256926
     16          9           0       -3.848173    0.000984   -1.010610
     17          6           0        1.574783    0.000149   -0.003434
     18          6           0        2.312039    0.006553   -1.221561
     19          6           0        2.288943   -0.005981    1.228456
     20          6           0        3.686219    0.007326   -1.223117
     21          1           0        1.767623    0.011495   -2.167546
     22          6           0        3.662602   -0.006907    1.255773
     23          1           0        1.726691   -0.010685    2.163948
     24          6           0        4.396489    0.000022    0.023255
     25          1           0        4.254689    0.013226   -2.155167
     26          1           0        4.214234   -0.012637    2.197961
     27          1           0        0.871266   -2.890132   -0.063337
     28          1           0       -3.487985   -2.792314   -0.057209
     29          1           0        0.870812    2.890536   -0.059656
     30          1           0       -3.488421    2.791992   -0.053144
     31          7           0        5.726341   -0.000351    0.036858
     32          1           0        6.241988   -0.005745    0.915609
     33          1           0        6.260394    0.004719   -0.830830
 ---------------------------------------------------------------------
                    Distance matrix (angstroms):
                    1          2          3          4          5
     1  C    0.000000
     2  C    2.461192   0.000000
     3  C    1.421907   1.421907   0.000000
     4  C    1.413683   3.827786   2.584216   0.000000
     5  C    2.272864   4.675686   3.675354   1.414803   0.000000
     6  C    2.235834   4.187158   3.582501   2.257504   1.391943
     7  H    3.332417   5.758643   4.708585   2.246699   1.089755
     8  C    4.187192   2.235834   3.582512   5.592645   6.040171
     9  C    3.827797   1.413684   2.584211   5.141201   6.072768
    10  C    4.675712   2.272864   3.675356   6.072778   6.783805
    11  H    5.758676   3.332417   4.708587   7.150043   7.872991
    12  N    1.389481   2.835657   2.440943   2.269407   2.258096
    13  N    2.835675   1.389483   2.440956   4.232510   4.684110
    14  B    2.607531   2.607517   3.010593   3.763812   3.750240
    15  F    3.518024   3.517928   3.958031   4.524255   4.325072
    16  F    3.592735   3.592815   4.064708   4.588929   4.333154
    17  C    2.515912   2.515863   1.482040   3.107067   4.460787
    18  C    3.394846   3.398484   2.525905   3.756412   5.099566
    19  C    3.399919   3.396343   2.523892   3.783723   5.123970
    20  C    4.633822   4.636845   3.790993   4.777030   6.154645
    21  H    3.431668   3.438123   2.727159   3.846183   5.039468
    22  C    4.637727   4.634577   3.789355   4.799384   6.175741
    23  H    3.440436   3.434265   2.723753   3.893156   5.082972
    24  C    5.165042   5.164874   4.303872   5.240780   6.649254
    25  H    5.457010   5.461777   4.679812   5.527665   6.847318
    26  H    5.463720   5.458891   4.678135   5.562564   6.881674
    27  H    4.382353   2.231063   2.993627   5.559239   6.653893
    28  H    4.940968   3.266322   4.541069   6.306479   6.552630
    29  H    2.231064   4.382345   2.993640   1.088823   2.249302
    30  H    3.266320   4.940916   4.541050   3.325869   2.248092
    31  N    6.464505   6.464197   5.633792   6.433012   7.822747
    32  H    7.035206   7.033347   6.219264   6.977155   8.349648
    33  H    7.034666   7.035826   6.221291   6.967426   8.339776
                    6          7          8          9         10
     6  C    0.000000
     7  H    2.214029   0.000000
     8  C    5.092443   7.109165   0.000000
     9  C    5.592629   7.150024   2.257502   0.000000
    10  C    6.040167   7.872978   1.391941   1.414802   0.000000
    11  H    7.109175   8.961979   2.214029   2.246697   1.089755
    12  N    1.370482   3.306330   3.810672   4.232511   4.684131
    13  N    3.810641   5.760323   1.370486   2.269411   2.258100
    14  B    2.594915   4.748732   2.594910   3.763787   3.750221
    15  F    3.115135   5.216086   3.114543   4.523747   4.324367
    16  F    3.069487   5.211020   3.070060   4.589367   4.333794
    17  C    4.743503   5.352597   4.743446   3.106962   4.460693
    18  C    5.503279   5.893277   5.508143   3.763683   5.106650
    19  C    5.512514   5.926227   5.507717   3.776553   5.116973
    20  C    6.723063   6.832661   6.727548   4.783466   6.161247
    21  H    5.339538   5.833868   5.348531   3.858931   5.052337
    22  C    6.731048   6.862241   6.726356   4.792650   6.168824
    23  H    5.356259   5.892524   5.347644   3.881000   5.070668
    24  C    7.283680   7.289348   7.283418   5.240400   6.648857
    25  H    7.449910   7.461176   7.457416   5.537981   6.858323
    26  H    7.463611   7.509817   7.455986   5.552103   6.870498
    27  H    6.358766   7.699135   3.316056   1.088824   2.249305
    28  H    5.442827   7.580616   1.089241   3.325866   2.248087
    29  H    3.316055   2.733218   6.358774   5.559235   6.653894
    30  H    1.089241   2.723814   5.442799   6.306441   6.552600
    31  N    8.542470   8.378449   8.541969   6.432332   7.822005
    32  H    9.088390   8.877114   9.085293   6.973036   8.345096
    33  H    9.085499   8.862021   9.087433   6.970001   8.342616
                   11         12         13         14         15
    11  H    0.000000
    12  N    5.760356   0.000000
    13  N    3.306335   2.482675   0.000000
    14  B    4.748710   1.539951   1.539956   0.000000
    15  F    5.215161   2.428281   2.428295   1.414616   0.000000
    16  F    5.211857   2.427660   2.427676   1.411421   2.275734
    17  C    5.352489   3.792686   3.792664   4.492195   5.379710
    18  C    5.901505   4.650734   4.653350   5.381551   6.461499
    19  C    5.918092   4.647332   4.644776   5.337720   5.944218
    20  C    6.840628   5.949397   5.951724   6.724951   7.749013
    21  H    5.848792   4.513155   4.517985   5.183130   6.413598
    22  C    6.853888   5.946763   5.944351   6.689242   7.317809
    23  H    5.878256   4.506849   4.502240   5.102255   5.457799
    24  C    7.288860   6.524835   6.524709   7.313630   8.145657
    25  H    7.474699   6.729219   6.733038   7.503200   8.614466
    26  H    7.496086   6.726062   6.722203   7.447757   7.925512
    27  H    2.733221   5.036486   3.318836   4.766159   5.529506
    28  H    2.723810   4.296326   2.143401   2.851908   3.089141
    29  H    7.699141   3.318832   5.036484   4.766193   5.530179
    30  H    7.580598   2.143396   4.296270   2.851909   3.090059
    31  N    8.377522   7.834611   7.834363   8.643443   9.460548
    32  H    8.871381   8.397481   8.395946   9.199881   9.903077
    33  H    8.865605   8.400153   8.401112   9.219674  10.133009
                   16         17         18         19         20
    16  F    0.000000
    17  C    5.515692   0.000000
    18  C    6.163825   1.423875   0.000000
    19  C    6.532814   1.423943   2.450158   0.000000
    20  C    7.537391   2.438409   1.374181   2.821838   0.000000
    21  H    5.733740   2.172716   1.091467   3.435827   2.138451
    22  C    7.845272   2.438163   2.821593   1.373931   2.479043
    23  H    6.415377   2.172726   3.435782   1.091464   3.913091
    24  C    8.309232   2.821832   2.427868   2.427817   1.434566
    25  H    8.183308   3.436862   2.155355   3.913238   1.091746
    26  H    8.677414   3.437005   3.913035   2.155627   3.461643
    27  H    5.615067   2.975273   3.436291   3.463649   4.202893
    28  H    2.973419   5.782072   6.544437   6.541367   7.788872
    29  H    5.614503   2.975411   3.427027   3.472771   4.194408
    30  H    2.972522   5.782118   6.539817   6.545921   7.784514
    31  N    9.631641   4.151754   3.638836   3.638082   2.397852
    32  H   10.272376   4.756835   4.473494   3.965405   3.332608
    33  H   10.110166   4.758104   3.967642   4.473611   2.603896
                   21         22         23         24         25
    21  H    0.000000
    22  C    3.912850   0.000000
    23  H    4.331744   2.138352   0.000000
    24  C    3.422087   1.434482   3.422061   0.000000
    25  H    2.487097   3.462006   5.004608   2.183072   0.000000
    26  H    5.004412   1.091810   2.487776   2.182366   4.353393
    27  H    3.694671   4.224286   3.739487   4.559351   4.924712
    28  H    6.319516   7.785455   6.313782   8.364720   8.498322
    29  H    3.679178   4.233157   3.754201   4.559862   4.911283
    30  H    6.310932   7.790008   6.322016   8.364971   8.490924
    31  N    4.531113   2.396834   4.530101   1.329922   2.640250
    32  H    5.433791   2.601720   4.684686   2.049926   3.657784
    33  H    4.687414   3.332052   5.433544   2.050274   2.403496
                   26         27         28         29         30
    26  H    0.000000
    27  H    4.956701   0.000000
    28  H    8.493325   4.360353   0.000000
    29  H    4.970284   5.780669   7.161976   0.000000
    30  H    8.500842   7.161949   5.584307   4.360352   0.000000
    31  N    2.637610   5.650896   9.628484   5.651788   9.628973
    32  H    2.399221   6.174357  10.167778   6.179734  10.170874
    33  H    3.655222   6.165380  10.171174   6.162000  10.169222
                   31         32         33
    31  N    0.000000
    32  H    1.018884   0.000000
    33  H    1.018882   1.746567   0.000000
 Stoichiometry    C15H12BF2N3
 Framework group  C1[X(C15H12BF2N3)]
 Deg. of freedom    93
 Full point group                 C1      NOp   1
 Largest Abelian subgroup         C1      NOp   1
 Largest concise Abelian subgroup C1      NOp   1
                         Standard orientation:                         
 ---------------------------------------------------------------------
 Center     Atomic      Atomic             Coordinates (Angstroms)
 Number     Number       Type             X           Y           Z
 ---------------------------------------------------------------------
      1          6           0       -0.619573    1.230661   -0.024820
      2          6           0       -0.619396   -1.230530   -0.027405
      3          6           0        0.092790    0.000105   -0.015291
      4          6           0       -0.169924    2.570715   -0.048718
      5          6           0       -1.321889    3.391935   -0.064267
      6          6           0       -2.427294    2.546153   -0.048856
      7          1           0       -1.351805    4.481031   -0.087539
      8          6           0       -2.426900   -2.546288   -0.053188
      9          6           0       -0.169528   -2.570484   -0.052793
     10          6           0       -1.321357   -3.391868   -0.069588
     11          1           0       -1.351091   -4.480946   -0.093910
     12          7           0       -2.009013    1.241292   -0.024374
     13          7           0       -2.008837   -1.241381   -0.027257
     14          5           0       -2.917092   -0.000194    0.050143
     15          9           0       -3.655205   -0.001637    1.256926
     16          9           0       -3.848173    0.000984   -1.010610
     17          6           0        1.574783    0.000149   -0.003434
     18          6           0        2.312039    0.006553   -1.221561
     19          6           0        2.288943   -0.005981    1.228456
     20          6           0        3.686219    0.007326   -1.223117
     21          1           0        1.767623    0.011495   -2.167546
     22          6           0        3.662602   -0.006907    1.255773
     23          1           0        1.726691   -0.010685    2.163948
     24          6           0        4.396489    0.000022    0.023255
     25          1           0        4.254689    0.013226   -2.155167
     26          1           0        4.214234   -0.012637    2.197961
     27          1           0        0.871266   -2.890132   -0.063337
     28          1           0       -3.487985   -2.792314   -0.057209
     29          1           0        0.870812    2.890536   -0.059656
     30          1           0       -3.488421    2.791992   -0.053144
     31          7           0        5.726341   -0.000351    0.036858
     32          1           0        6.241988   -0.005745    0.915609
     33          1           0        6.260394    0.004719   -0.830830
 ---------------------------------------------------------------------
 Rotational constants (GHZ):           0.5703769           0.2106994           0.1685602
 Standard basis: def2SVP (5D, 7F)
 There are   375 symmetry adapted cartesian basis functions of A   symmetry.
 There are   354 symmetry adapted basis functions of A   symmetry.
   354 basis functions,   609 primitive gaussians,   375 cartesian basis functions
    73 alpha electrons       73 beta electrons
       nuclear repulsion energy      1580.2731707943 Hartrees.
 NAtoms=   33 NActive=   33 NUniq=   33 SFac= 1.00D+00 NAtFMM=   60 NAOKFM=F Big=F
 Integral buffers will be    131072 words long.
 Raffenetti 2 integral format.
 Two-electron integral symmetry is turned on.
 Nuclear repulsion after empirical dispersion term =     1580.2485771148 Hartrees.
 ------------------------------------------------------------------------------
 Polarizable Continuum Model (PCM)
 =================================
 Model                : PCM.
 Atomic radii         : SMD-Coulomb.
 Polarization charges : Total charges.
 Charge compensation  : None.
 Solution method      : On-the-fly selection.
 Cavity type          : VdW (van der Waals Surface) (Alpha=1.000).
 Cavity algorithm     : GePol (No added spheres)
                        Default sphere list used, NSphG=   33.
                        Lebedev-Laikov grids with approx.  5.0 points / Ang**2.
                        Smoothing algorithm: York/Karplus (Gamma=1.0000).
                        Polarization charges: spherical gaussians, with
                                              point-specific exponents (IZeta= 3).
                        Self-potential: point-specific (ISelfS= 7).
                        Self-field    : sphere-specific E.n sum rule (ISelfD= 2).
 Solvent              : Ethanol, Eps=  24.852000 Eps(inf)=   1.852593
 ------------------------------------------------------------------------------
 ------------------------------------------------------------------------------
 Atomic radii for non-electrostatic terms: SMD-CDS.
 ------------------------------------------------------------------------------
 Nuclear repulsion after PCM non-electrostatic terms =     1580.2479685112 Hartrees.
 One-electron integrals computed using PRISM.
   1 Symmetry operations used in ECPInt.
 ECPInt:  NShTT=   13203 NPrTT=   49137 LenC2=   11963 LenP2D=   30951.
 LDataN:  DoStor=T MaxTD1= 4 Len=   56
 NBasis=   354 RedAO= T EigKep=  2.83D-04  NBF=   354
 NBsUse=   354 1.00D-06 EigRej= -1.00D+00 NBFU=   354
 Initial guess from the checkpoint file:  "07BDP-NH2_ethanol_wb97xd_wb97xd_wb97xd.chk"
 B after Tr=    -0.000000   -0.000000   -0.000000
         Rot=    1.000000    0.000000    0.000000    0.000000 Ang=   0.00 deg.
 Requested convergence on RMS density matrix=1.00D-08 within 128 cycles.
 Requested convergence on MAX density matrix=1.00D-06.
 Requested convergence on             energy=1.00D-06.
 No special actions if energy rises.
 Inv3:  Mode=1 IEnd=    20342448.
 Iteration    1 A*A^-1 deviation from unit magnitude is 4.88D-15 for   2603.
 Iteration    1 A*A^-1 deviation from orthogonality  is 2.11D-15 for   1620    844.
 Iteration    1 A^-1*A deviation from unit magnitude is 5.11D-15 for   2603.
 Iteration    1 A^-1*A deviation from orthogonality  is 1.43D-13 for   1647   1582.
 NEqPCM:  Using non-equilibrium solvation (IEInf=1, Eps=  24.8520, EpsInf=   1.8526)
 Inv3:  Mode=1 IEnd=    20342448.
 Iteration    1 A*A^-1 deviation from unit magnitude is 7.77D-15 for   2600.
 Iteration    1 A*A^-1 deviation from orthogonality  is 2.24D-15 for   1595   1135.
 Iteration    1 A^-1*A deviation from unit magnitude is 7.99D-15 for   2600.
 Iteration    1 A^-1*A deviation from orthogonality  is 2.74D-15 for   2303    883.
 Error on total polarization charges =  0.02004
 SCF Done:  E(RwB97XD) =  -966.790531368     A.U. after   15 cycles
            NFock= 15  Conv=0.69D-08     -V/T= 2.0103
 SMD-CDS (non-electrostatic) energy       (kcal/mol) =      -0.38
 (included in total energy above)

 **********************************************************************

            Population analysis using the SCF Density.

 **********************************************************************

 Orbital symmetries:
       Occupied  (A) (A) (A) (A) (A) (A) (A) (A) (A) (A) (A) (A)
                 (A) (A) (A) (A) (A) (A) (A) (A) (A) (A) (A) (A)
                 (A) (A) (A) (A) (A) (A) (A) (A) (A) (A) (A) (A)
                 (A) (A) (A) (A) (A) (A) (A) (A) (A) (A) (A) (A)
                 (A) (A) (A) (A) (A) (A) (A) (A) (A) (A) (A) (A)
                 (A) (A) (A) (A) (A) (A) (A) (A) (A) (A) (A) (A)
                 (A)
       Virtual   (A) (A) (A) (A) (A) (A) (A) (A) (A) (A) (A) (A)
                 (A) (A) (A) (A) (A) (A) (A) (A) (A) (A) (A) (A)
                 (A) (A) (A) (A) (A) (A) (A) (A) (A) (A) (A) (A)
                 (A) (A) (A) (A) (A) (A) (A) (A) (A) (A) (A) (A)
                 (A) (A) (A) (A) (A) (A) (A) (A) (A) (A) (A) (A)
                 (A) (A) (A) (A) (A) (A) (A) (A) (A) (A) (A) (A)
                 (A) (A) (A) (A) (A) (A) (A) (A) (A) (A) (A) (A)
                 (A) (A) (A) (A) (A) (A) (A) (A) (A) (A) (A) (A)
                 (A) (A) (A) (A) (A) (A) (A) (A) (A) (A) (A) (A)
                 (A) (A) (A) (A) (A) (A) (A) (A) (A) (A) (A) (A)
                 (A) (A) (A) (A) (A) (A) (A) (A) (A) (A) (A) (A)
                 (A) (A) (A) (A) (A) (A) (A) (A) (A) (A) (A) (A)
                 (A) (A) (A) (A) (A) (A) (A) (A) (A) (A) (A) (A)
                 (A) (A) (A) (A) (A) (A) (A) (A) (A) (A) (A) (A)
                 (A) (A) (A) (A) (A) (A) (A) (A) (A) (A) (A) (A)
                 (A) (A) (A) (A) (A) (A) (A) (A) (A) (A) (A) (A)
                 (A) (A) (A) (A) (A) (A) (A) (A) (A) (A) (A) (A)
                 (A) (A) (A) (A) (A) (A) (A) (A) (A) (A) (A) (A)
                 (A) (A) (A) (A) (A) (A) (A) (A) (A) (A) (A) (A)
                 (A) (A) (A) (A) (A) (A) (A) (A) (A) (A) (A) (A)
                 (A) (A) (A) (A) (A) (A) (A) (A) (A) (A) (A) (A)
                 (A) (A) (A) (A) (A) (A) (A) (A) (A) (A) (A) (A)
                 (A) (A) (A) (A) (A) (A) (A) (A) (A) (A) (A) (A)
                 (A) (A) (A) (A) (A)
 The electronic state is 1-A.
 Alpha  occ. eigenvalues --  -24.78308 -24.78165 -14.49832 -14.49830 -14.42155
 Alpha  occ. eigenvalues --  -10.38458 -10.36565 -10.36562 -10.35752 -10.35743
 Alpha  occ. eigenvalues --  -10.33295 -10.33292 -10.32598 -10.32008 -10.32008
 Alpha  occ. eigenvalues --  -10.29356 -10.29219 -10.29211 -10.27070 -10.27066
 Alpha  occ. eigenvalues --   -6.95871  -1.26634  -1.23149  -1.10515  -1.08659
 Alpha  occ. eigenvalues --   -0.99224  -0.94675  -0.90658  -0.89405  -0.88558
 Alpha  occ. eigenvalues --   -0.84148  -0.82145  -0.80917  -0.75749  -0.71609
 Alpha  occ. eigenvalues --   -0.69953  -0.68504  -0.68374  -0.68322  -0.66336
 Alpha  occ. eigenvalues --   -0.64860  -0.61119  -0.60416  -0.59174  -0.58796
 Alpha  occ. eigenvalues --   -0.57894  -0.56272  -0.55369  -0.53933  -0.53620
 Alpha  occ. eigenvalues --   -0.53509  -0.53113  -0.51289  -0.50058  -0.49845
 Alpha  occ. eigenvalues --   -0.49382  -0.49288  -0.48643  -0.48638  -0.48085
 Alpha  occ. eigenvalues --   -0.48078  -0.46513  -0.45605  -0.45132  -0.43938
 Alpha  occ. eigenvalues --   -0.40659  -0.38488  -0.38021  -0.36491  -0.35580
 Alpha  occ. eigenvalues --   -0.32129  -0.30994  -0.24506
 Alpha virt. eigenvalues --   -0.06985   0.07336   0.08630   0.09103   0.09278
 Alpha virt. eigenvalues --    0.11973   0.15847   0.16422   0.16613   0.17319
 Alpha virt. eigenvalues --    0.18747   0.19212   0.19859   0.20001   0.20383
 Alpha virt. eigenvalues --    0.21014   0.21456   0.23576   0.24252   0.24563
 Alpha virt. eigenvalues --    0.24588   0.26590   0.26802   0.27135   0.28503
 Alpha virt. eigenvalues --    0.28672   0.29183   0.32370   0.32877   0.33413
 Alpha virt. eigenvalues --    0.35087   0.37204   0.37734   0.39171   0.39847
 Alpha virt. eigenvalues --    0.39981   0.41492   0.41650   0.42578   0.43823
 Alpha virt. eigenvalues --    0.44536   0.45658   0.46839   0.46910   0.47751
 Alpha virt. eigenvalues --    0.48019   0.48485   0.49465   0.49641   0.50382
 Alpha virt. eigenvalues --    0.50701   0.52039   0.52436   0.53010   0.53895
 Alpha virt. eigenvalues --    0.55385   0.57186   0.57467   0.57753   0.57814
 Alpha virt. eigenvalues --    0.57897   0.59392   0.60098   0.62441   0.62733
 Alpha virt. eigenvalues --    0.62958   0.63459   0.64860   0.65621   0.66289
 Alpha virt. eigenvalues --    0.66902   0.67851   0.69573   0.71447   0.72176
 Alpha virt. eigenvalues --    0.72581   0.73045   0.74008   0.74236   0.74919
 Alpha virt. eigenvalues --    0.74956   0.75474   0.77136   0.78166   0.78479
 Alpha virt. eigenvalues --    0.78674   0.79310   0.79946   0.79950   0.80062
 Alpha virt. eigenvalues --    0.81649   0.81715   0.81847   0.82927   0.84462
 Alpha virt. eigenvalues --    0.85916   0.86579   0.87203   0.90439   0.90669
 Alpha virt. eigenvalues --    0.92364   0.92584   0.93190   0.93545   0.94497
 Alpha virt. eigenvalues --    0.96908   0.98229   0.99212   1.01855   1.03095
 Alpha virt. eigenvalues --    1.05751   1.06655   1.09680   1.10851   1.11588
 Alpha virt. eigenvalues --    1.13656   1.13694   1.18015   1.19600   1.21319
 Alpha virt. eigenvalues --    1.21517   1.21648   1.23553   1.25145   1.26037
 Alpha virt. eigenvalues --    1.28387   1.29755   1.32491   1.33145   1.33292
 Alpha virt. eigenvalues --    1.33582   1.34872   1.35231   1.35376   1.36288
 Alpha virt. eigenvalues --    1.37402   1.38219   1.38655   1.40371   1.40419
 Alpha virt. eigenvalues --    1.42034   1.42464   1.43166   1.43904   1.45234
 Alpha virt. eigenvalues --    1.48310   1.48888   1.52628   1.55551   1.57055
 Alpha virt. eigenvalues --    1.59995   1.60930   1.62604   1.62642   1.68828
 Alpha virt. eigenvalues --    1.69023   1.69964   1.71121   1.71781   1.72374
 Alpha virt. eigenvalues --    1.74344   1.75581   1.77210   1.77226   1.78849
 Alpha virt. eigenvalues --    1.79223   1.79472   1.80879   1.81270   1.82477
 Alpha virt. eigenvalues --    1.83541   1.85521   1.85709   1.85909   1.86478
 Alpha virt. eigenvalues --    1.87616   1.88321   1.89212   1.91510   1.92234
 Alpha virt. eigenvalues --    1.92356   1.92863   1.95236   1.95790   1.96894
 Alpha virt. eigenvalues --    1.98615   1.98905   1.99086   2.00186   2.00262
 Alpha virt. eigenvalues --    2.01175   2.01555   2.02729   2.04052   2.05918
 Alpha virt. eigenvalues --    2.07959   2.08639   2.09707   2.10898   2.12515
 Alpha virt. eigenvalues --    2.13564   2.16449   2.18953   2.19649   2.21363
 Alpha virt. eigenvalues --    2.23315   2.23354   2.23885   2.26024   2.26784
 Alpha virt. eigenvalues --    2.28313   2.28801   2.30443   2.31658   2.31900
 Alpha virt. eigenvalues --    2.33634   2.35913   2.36376   2.36711   2.36804
 Alpha virt. eigenvalues --    2.38466   2.40301   2.42676   2.46059   2.48356
 Alpha virt. eigenvalues --    2.49478   2.50410   2.51503   2.55183   2.60323
 Alpha virt. eigenvalues --    2.60719   2.60872   2.65679   2.65981   2.68436
 Alpha virt. eigenvalues --    2.69142   2.73057   2.73982   2.75050   2.75060
 Alpha virt. eigenvalues --    2.75680   2.75964   2.76339   2.77141   2.78704
 Alpha virt. eigenvalues --    2.78809   2.80932   2.84039   2.85859   2.89428
 Alpha virt. eigenvalues --    2.90708   2.93389   2.94988   2.96355   2.99189
 Alpha virt. eigenvalues --    3.01855   3.04161   3.06785   3.08343   3.17227
 Alpha virt. eigenvalues --    3.17466   3.17745   3.19792   3.20333   3.21629
 Alpha virt. eigenvalues --    3.23121   3.27815   3.29708   3.32159   3.32562
 Alpha virt. eigenvalues --    3.35568   3.48194   3.50484   3.51353   3.51978
 Alpha virt. eigenvalues --    3.55955   3.67338   3.68041   3.72087   3.79187
 Alpha virt. eigenvalues --    3.80947
          Condensed to atoms (all electrons):
               1          2          3          4          5          6
     1  C    5.227536  -0.051489   0.273918   0.409475  -0.013128  -0.131591
     2  C   -0.051489   5.227521   0.273940   0.012320  -0.000572  -0.000027
     3  C    0.273918   0.273940   5.376075  -0.099870   0.019672   0.008758
     4  C    0.409475   0.012320  -0.099870   5.073774   0.355537  -0.018464
     5  C   -0.013128  -0.000572   0.019672   0.355537   5.077840   0.383244
     6  C   -0.131591  -0.000027   0.008758  -0.018464   0.383244   4.860062
     7  H    0.009858   0.000007  -0.000403  -0.050275   0.449815  -0.051368
     8  C   -0.000026  -0.131596   0.008755   0.000025  -0.000002  -0.000002
     9  C    0.012321   0.409485  -0.099872  -0.000068   0.000001   0.000025
    10  C   -0.000571  -0.013124   0.019673   0.000001  -0.000000  -0.000002
    11  H    0.000007   0.009858  -0.000403   0.000000   0.000000   0.000000
    12  N    0.429867  -0.003604  -0.076012  -0.099020  -0.064813   0.430981
    13  N   -0.003609   0.429852  -0.076001  -0.000217  -0.000006   0.000366
    14  B   -0.048069  -0.048069  -0.009591   0.002835  -0.000944  -0.010632
    15  F   -0.003284  -0.003282   0.001501  -0.000027  -0.000120  -0.001563
    16  F   -0.003317  -0.003318   0.001645  -0.000086   0.000175  -0.000257
    17  C   -0.096767  -0.096755   0.412974  -0.003611   0.000145   0.000032
    18  C   -0.011113  -0.010951  -0.050592   0.000248   0.000029  -0.000005
    19  C   -0.010722  -0.010885  -0.050433   0.000362   0.000023  -0.000005
    20  C    0.001005   0.000989   0.006439  -0.000184  -0.000007   0.000000
    21  H   -0.001603  -0.001608  -0.008731   0.000282   0.000003  -0.000002
    22  C    0.000998   0.001012   0.006398  -0.000155  -0.000007   0.000000
    23  H   -0.001612  -0.001603  -0.008857   0.000208   0.000005  -0.000002
    24  C    0.000000   0.000001   0.001649  -0.000010   0.000001  -0.000000
    25  H   -0.000009  -0.000008  -0.000245  -0.000003  -0.000000   0.000000
    26  H   -0.000009  -0.000009  -0.000245  -0.000003  -0.000000   0.000000
    27  H   -0.000183  -0.025072  -0.017790   0.000001   0.000000  -0.000000
    28  H    0.000059   0.002958  -0.000424  -0.000000   0.000000   0.000004
    29  H   -0.025079  -0.000183  -0.017788   0.446755  -0.058556   0.009755
    30  H    0.002958   0.000059  -0.000424   0.008902  -0.050344   0.428410
    31  N   -0.000000  -0.000000   0.000007   0.000000   0.000000  -0.000000
    32  H   -0.000000  -0.000000   0.000000   0.000000   0.000000   0.000000
    33  H   -0.000000  -0.000000   0.000000   0.000000   0.000000   0.000000
               7          8          9         10         11         12
     1  C    0.009858  -0.000026   0.012321  -0.000571   0.000007   0.429867
     2  C    0.000007  -0.131596   0.409485  -0.013124   0.009858  -0.003604
     3  C   -0.000403   0.008755  -0.099872   0.019673  -0.000403  -0.076012
     4  C   -0.050275   0.000025  -0.000068   0.000001   0.000000  -0.099020
     5  C    0.449815  -0.000002   0.000001  -0.000000   0.000000  -0.064813
     6  C   -0.051368  -0.000002   0.000025  -0.000002   0.000000   0.430981
     7  H    0.581935   0.000000   0.000000   0.000000  -0.000000   0.004124
     8  C    0.000000   4.860056  -0.018452   0.383239  -0.051369   0.000366
     9  C    0.000000  -0.018452   5.073769   0.355516  -0.050275  -0.000217
    10  C    0.000000   0.383239   0.355516   5.077862   0.449816  -0.000006
    11  H   -0.000000  -0.051369  -0.050275   0.449816   0.581936   0.000002
    12  N    0.004124   0.000366  -0.000217  -0.000006   0.000002   6.406508
    13  N    0.000002   0.430977  -0.099028  -0.064812   0.004124  -0.051542
    14  B    0.000109  -0.010624   0.002834  -0.000947   0.000109   0.298917
    15  F    0.000001  -0.001554  -0.000027  -0.000120   0.000001  -0.034483
    16  F    0.000001  -0.000266  -0.000086   0.000175   0.000001  -0.033391
    17  C   -0.000020   0.000032  -0.003611   0.000145  -0.000020   0.003482
    18  C    0.000000  -0.000005   0.000244   0.000028   0.000000  -0.000062
    19  C    0.000000  -0.000005   0.000367   0.000024   0.000000  -0.000066
    20  C    0.000000   0.000000  -0.000177  -0.000007   0.000000   0.000003
    21  H   -0.000000  -0.000002   0.000269   0.000004  -0.000000  -0.000067
    22  C    0.000000   0.000000  -0.000161  -0.000007   0.000000   0.000003
    23  H   -0.000000  -0.000002   0.000219   0.000005  -0.000000  -0.000066
    24  C    0.000000  -0.000000  -0.000010   0.000001   0.000000  -0.000000
    25  H   -0.000000   0.000000  -0.000003  -0.000000  -0.000000  -0.000000
    26  H   -0.000000   0.000000  -0.000003  -0.000000  -0.000000  -0.000000
    27  H   -0.000000   0.009754   0.446752  -0.058558  -0.003889  -0.000011
    28  H   -0.000000   0.428411   0.008903  -0.050347  -0.003379   0.000142
    29  H   -0.003890  -0.000000   0.000001   0.000000  -0.000000   0.004404
    30  H   -0.003379   0.000004  -0.000000   0.000000  -0.000000  -0.029765
    31  N   -0.000000  -0.000000   0.000000   0.000000  -0.000000   0.000000
    32  H   -0.000000   0.000000   0.000000   0.000000  -0.000000  -0.000000
    33  H   -0.000000   0.000000   0.000000   0.000000  -0.000000  -0.000000
              13         14         15         16         17         18
     1  C   -0.003609  -0.048069  -0.003284  -0.003317  -0.096767  -0.011113
     2  C    0.429852  -0.048069  -0.003282  -0.003318  -0.096755  -0.010951
     3  C   -0.076001  -0.009591   0.001501   0.001645   0.412974  -0.050592
     4  C   -0.000217   0.002835  -0.000027  -0.000086  -0.003611   0.000248
     5  C   -0.000006  -0.000944  -0.000120   0.000175   0.000145   0.000029
     6  C    0.000366  -0.010632  -0.001563  -0.000257   0.000032  -0.000005
     7  H    0.000002   0.000109   0.000001   0.000001  -0.000020   0.000000
     8  C    0.430977  -0.010624  -0.001554  -0.000266   0.000032  -0.000005
     9  C   -0.099028   0.002834  -0.000027  -0.000086  -0.003611   0.000244
    10  C   -0.064812  -0.000947  -0.000120   0.000175   0.000145   0.000028
    11  H    0.004124   0.000109   0.000001   0.000001  -0.000020   0.000000
    12  N   -0.051542   0.298917  -0.034483  -0.033391   0.003482  -0.000062
    13  N    6.406536   0.298913  -0.034492  -0.033380   0.003484  -0.000063
    14  B    0.298913   3.425249   0.455145   0.444587   0.001900   0.000037
    15  F   -0.034492   0.455145   8.912478  -0.027645   0.000004   0.000000
    16  F   -0.033380   0.444587  -0.027645   8.917567   0.000004  -0.000000
    17  C    0.003484   0.001900   0.000004   0.000004   5.497094   0.275702
    18  C   -0.000063   0.000037   0.000000  -0.000000   0.275702   4.972232
    19  C   -0.000065  -0.000016  -0.000000  -0.000000   0.276637   0.071086
    20  C    0.000003  -0.000001  -0.000000  -0.000000   0.063163   0.342336
    21  H   -0.000066  -0.000002  -0.000000   0.000000  -0.075289   0.455463
    22  C    0.000003  -0.000000  -0.000000  -0.000000   0.063318  -0.103627
    23  H   -0.000067   0.000008   0.000000  -0.000000  -0.074726   0.011200
    24  C   -0.000000   0.000000   0.000000   0.000000  -0.152597   0.099463
    25  H   -0.000000  -0.000000   0.000000   0.000000   0.014352  -0.062620
    26  H   -0.000000  -0.000000   0.000000   0.000000   0.014333  -0.002061
    27  H    0.004404   0.000237   0.000001   0.000001   0.005576  -0.000091
    28  H   -0.029763   0.001131   0.000119   0.001107   0.000004  -0.000000
    29  H   -0.000011   0.000237   0.000001   0.000001   0.005572  -0.000064
    30  H    0.000142   0.001129   0.000115   0.001114   0.000004  -0.000000
    31  N    0.000000   0.000000   0.000000   0.000000   0.000118   0.006543
    32  H   -0.000000  -0.000000  -0.000000  -0.000000  -0.000020  -0.000459
    33  H   -0.000000  -0.000000  -0.000000   0.000000  -0.000020   0.000643
              19         20         21         22         23         24
     1  C   -0.010722   0.001005  -0.001603   0.000998  -0.001612   0.000000
     2  C   -0.010885   0.000989  -0.001608   0.001012  -0.001603   0.000001
     3  C   -0.050433   0.006439  -0.008731   0.006398  -0.008857   0.001649
     4  C    0.000362  -0.000184   0.000282  -0.000155   0.000208  -0.000010
     5  C    0.000023  -0.000007   0.000003  -0.000007   0.000005   0.000001
     6  C   -0.000005   0.000000  -0.000002   0.000000  -0.000002  -0.000000
     7  H    0.000000   0.000000  -0.000000   0.000000  -0.000000   0.000000
     8  C   -0.000005   0.000000  -0.000002   0.000000  -0.000002  -0.000000
     9  C    0.000367  -0.000177   0.000269  -0.000161   0.000219  -0.000010
    10  C    0.000024  -0.000007   0.000004  -0.000007   0.000005   0.000001
    11  H    0.000000   0.000000  -0.000000   0.000000  -0.000000   0.000000
    12  N   -0.000066   0.000003  -0.000067   0.000003  -0.000066  -0.000000
    13  N   -0.000065   0.000003  -0.000066   0.000003  -0.000067  -0.000000
    14  B   -0.000016  -0.000001  -0.000002  -0.000000   0.000008   0.000000
    15  F   -0.000000  -0.000000  -0.000000  -0.000000   0.000000   0.000000
    16  F   -0.000000  -0.000000   0.000000  -0.000000  -0.000000   0.000000
    17  C    0.276637   0.063163  -0.075289   0.063318  -0.074726  -0.152597
    18  C    0.071086   0.342336   0.455463  -0.103627   0.011200   0.099463
    19  C    4.970282  -0.103254   0.011152   0.342180   0.455342   0.099456
    20  C   -0.103254   5.208995  -0.055420   0.010001  -0.001708   0.236967
    21  H    0.011152  -0.055420   0.651477  -0.001697  -0.000162   0.013284
    22  C    0.342180   0.010001  -0.001697   5.209291  -0.055640   0.236978
    23  H    0.455342  -0.001708  -0.000162  -0.055640   0.651256   0.013283
    24  C    0.099456   0.236967   0.013284   0.236978   0.013283   5.037362
    25  H   -0.002066   0.456928  -0.011515   0.012110   0.000015  -0.064566
    26  H   -0.062676   0.012108   0.000015   0.456968  -0.011491  -0.064532
    27  H   -0.000172   0.000317  -0.000059   0.000292  -0.000059  -0.000021
    28  H    0.000000   0.000000  -0.000000   0.000000  -0.000000  -0.000000
    29  H   -0.000195   0.000326  -0.000059   0.000284  -0.000059  -0.000021
    30  H    0.000000   0.000000  -0.000000   0.000000  -0.000000  -0.000000
    31  N    0.006555  -0.097876  -0.000106  -0.097965  -0.000106   0.504174
    32  H    0.000650   0.010465   0.000009  -0.024553  -0.000018  -0.002818
    33  H   -0.000461  -0.024465  -0.000017   0.010475   0.000009  -0.002907
              25         26         27         28         29         30
     1  C   -0.000009  -0.000009  -0.000183   0.000059  -0.025079   0.002958
     2  C   -0.000008  -0.000009  -0.025072   0.002958  -0.000183   0.000059
     3  C   -0.000245  -0.000245  -0.017790  -0.000424  -0.017788  -0.000424
     4  C   -0.000003  -0.000003   0.000001  -0.000000   0.446755   0.008902
     5  C   -0.000000  -0.000000   0.000000   0.000000  -0.058556  -0.050344
     6  C    0.000000   0.000000  -0.000000   0.000004   0.009755   0.428410
     7  H   -0.000000  -0.000000  -0.000000  -0.000000  -0.003890  -0.003379
     8  C    0.000000   0.000000   0.009754   0.428411  -0.000000   0.000004
     9  C   -0.000003  -0.000003   0.446752   0.008903   0.000001  -0.000000
    10  C   -0.000000  -0.000000  -0.058558  -0.050347   0.000000   0.000000
    11  H   -0.000000  -0.000000  -0.003889  -0.003379  -0.000000  -0.000000
    12  N   -0.000000  -0.000000  -0.000011   0.000142   0.004404  -0.029765
    13  N   -0.000000  -0.000000   0.004404  -0.029763  -0.000011   0.000142
    14  B   -0.000000  -0.000000   0.000237   0.001131   0.000237   0.001129
    15  F    0.000000   0.000000   0.000001   0.000119   0.000001   0.000115
    16  F    0.000000   0.000000   0.000001   0.001107   0.000001   0.001114
    17  C    0.014352   0.014333   0.005576   0.000004   0.005572   0.000004
    18  C   -0.062620  -0.002061  -0.000091  -0.000000  -0.000064  -0.000000
    19  C   -0.002066  -0.062676  -0.000172   0.000000  -0.000195   0.000000
    20  C    0.456928   0.012108   0.000317   0.000000   0.000326   0.000000
    21  H   -0.011515   0.000015  -0.000059  -0.000000  -0.000059  -0.000000
    22  C    0.012110   0.456968   0.000292   0.000000   0.000284   0.000000
    23  H    0.000015  -0.011491  -0.000059  -0.000000  -0.000059  -0.000000
    24  C   -0.064566  -0.064532  -0.000021  -0.000000  -0.000021  -0.000000
    25  H    0.627117  -0.000122  -0.000001  -0.000000  -0.000001  -0.000000
    26  H   -0.000122   0.627051  -0.000001  -0.000000  -0.000001  -0.000000
    27  H   -0.000001  -0.000001   0.560434  -0.000096  -0.000001  -0.000000
    28  H   -0.000000  -0.000000  -0.000096   0.553426  -0.000000  -0.000000
    29  H   -0.000001  -0.000001  -0.000001  -0.000000   0.560443  -0.000096
    30  H   -0.000000  -0.000000  -0.000000  -0.000000  -0.000096   0.553429
    31  N   -0.008855  -0.008886  -0.000001   0.000000  -0.000001   0.000000
    32  H   -0.000222   0.004098  -0.000000  -0.000000  -0.000000  -0.000000
    33  H    0.004087  -0.000221  -0.000000  -0.000000  -0.000000  -0.000000
              31         32         33
     1  C   -0.000000  -0.000000  -0.000000
     2  C   -0.000000  -0.000000  -0.000000
     3  C    0.000007   0.000000   0.000000
     4  C    0.000000   0.000000   0.000000
     5  C    0.000000   0.000000   0.000000
     6  C   -0.000000   0.000000   0.000000
     7  H   -0.000000  -0.000000  -0.000000
     8  C   -0.000000   0.000000   0.000000
     9  C    0.000000   0.000000   0.000000
    10  C    0.000000   0.000000   0.000000
    11  H   -0.000000  -0.000000  -0.000000
    12  N    0.000000  -0.000000  -0.000000
    13  N    0.000000  -0.000000  -0.000000
    14  B    0.000000  -0.000000  -0.000000
    15  F    0.000000  -0.000000  -0.000000
    16  F    0.000000  -0.000000   0.000000
    17  C    0.000118  -0.000020  -0.000020
    18  C    0.006543  -0.000459   0.000643
    19  C    0.006555   0.000650  -0.000461
    20  C   -0.097876   0.010465  -0.024465
    21  H   -0.000106   0.000009  -0.000017
    22  C   -0.097965  -0.024553   0.010475
    23  H   -0.000106  -0.000018   0.000009
    24  C    0.504174  -0.002818  -0.002907
    25  H   -0.008855  -0.000222   0.004087
    26  H   -0.008886   0.004098  -0.000221
    27  H   -0.000001  -0.000000  -0.000000
    28  H    0.000000  -0.000000  -0.000000
    29  H   -0.000001  -0.000000  -0.000000
    30  H    0.000000  -0.000000  -0.000000
    31  N    6.051795   0.372681   0.372680
    32  H    0.372681   0.493500  -0.027728
    33  H    0.372680  -0.027728   0.493536
 Mulliken charges:
               1
     1  C    0.034177
     2  C    0.034153
     3  C    0.106275
     4  C   -0.038730
     5  C   -0.097993
     6  C    0.092282
     7  H    0.063482
     8  C    0.092285
     9  C   -0.038717
    10  C   -0.097988
    11  H    0.063482
    12  N   -0.185674
    13  N   -0.185684
    14  B    0.195516
    15  F   -0.262769
    16  F   -0.264631
    17  C   -0.134636
    18  C    0.006460
    19  C    0.006905
    20  C   -0.066944
    21  H    0.024446
    22  C   -0.066499
    23  H    0.024630
    24  C    0.044862
    25  H    0.035628
    26  H    0.035686
    27  H    0.078237
    28  H    0.087746
    29  H    0.078225
    30  H    0.087742
    31  N   -0.100756
    32  H    0.174413
    33  H    0.174388
 Sum of Mulliken charges =  -0.00000
 Mulliken charges with hydrogens summed into heavy atoms:
               1
     1  C    0.034177
     2  C    0.034153
     3  C    0.106275
     4  C    0.039495
     5  C   -0.034511
     6  C    0.180024
     8  C    0.180031
     9  C    0.039520
    10  C   -0.034506
    12  N   -0.185674
    13  N   -0.185684
    14  B    0.195516
    15  F   -0.262769
    16  F   -0.264631
    17  C   -0.134636
    18  C    0.030906
    19  C    0.031535
    20  C   -0.031316
    22  C   -0.030812
    24  C    0.044862
    31  N    0.248045
 Electronic spatial extent (au):  <R**2>=           6203.5298
 Charge=             -0.0000 electrons
 Dipole moment (field-independent basis, Debye):
    X=             14.2822    Y=              0.0001    Z=             -0.3369  Tot=             14.2862
 Quadrupole moment (field-independent basis, Debye-Ang):
   XX=            -87.1575   YY=           -104.0275   ZZ=           -119.1305
   XY=             -0.0074   XZ=              1.3067   YZ=             -0.0523
 Traceless Quadrupole moment (field-independent basis, Debye-Ang):
   XX=             16.2810   YY=             -0.5890   ZZ=            -15.6920
   XY=             -0.0074   XZ=              1.3067   YZ=             -0.0523
 Octapole moment (field-independent basis, Debye-Ang**2):
  XXX=            404.6160  YYY=             -0.0078  ZZZ=              1.3706  XYY=            -54.6716
  XXY=             -0.0202  XXZ=             -0.6094  XZZ=             41.5551  YZZ=             -0.0030
  YYZ=             -1.6122  XYZ=             -0.3119
 Hexadecapole moment (field-independent basis, Debye-Ang**3):
 XXXX=          -3473.0775 YYYY=          -1790.3479 ZZZZ=           -441.6262 XXXY=             -0.2435
 XXXZ=             14.3959 YYYX=             -0.0057 YYYZ=              0.3158 ZZZX=              3.2471
 ZZZY=             -0.4674 XXYY=          -1187.4682 XXZZ=           -897.3310 YYZZ=           -482.1628
 XXYZ=             -1.1818 YYXZ=              1.1476 ZZXY=             -0.0124
 N-N= 1.580247968511D+03 E-N=-5.416279914071D+03  KE= 9.569322828037D+02
 Unable to Open any file for archive entry.
 1\1\GINC-X1002C0S5B1N1\SP\RwB97XD\def2SVP\C15H12B1F2N3\1008721\10-Oct-
 2025\0\\# wb97xd/def2svp geom=check guess=read SCRF=(SMD, solvent=etha
 nol, NonEq=Read)\\BDP-NH2_ethanol_wb97xd_wb97xd_wb97xd\\0,1\C,0,-0.619
 573,1.230661,-0.02482\C,0,-0.619396,-1.23053,-0.027405\C,0,0.09279,0.0
 00105,-0.015291\C,0,-0.169924,2.570715,-0.048718\C,0,-1.321889,3.39193
 5,-0.064267\C,0,-2.427294,2.546153,-0.048856\H,0,-1.351805,4.481031,-0
 .087539\C,0,-2.4269,-2.546288,-0.053188\C,0,-0.169528,-2.570484,-0.052
 793\C,0,-1.321357,-3.391868,-0.069588\H,0,-1.351091,-4.480946,-0.09391
 \N,0,-2.009013,1.241292,-0.024374\N,0,-2.008837,-1.241381,-0.027257\B,
 0,-2.917092,-0.000194,0.050143\F,0,-3.655205,-0.001637,1.256926\F,0,-3
 .848173,0.000984,-1.01061\C,0,1.574783,0.000149,-0.003434\C,0,2.312039
 ,0.006553,-1.221561\C,0,2.288943,-0.005981,1.228456\C,0,3.686219,0.007
 326,-1.223117\H,0,1.767623,0.011495,-2.167546\C,0,3.662602,-0.006907,1
 .255773\H,0,1.726691,-0.010685,2.163948\C,0,4.396489,0.000022,0.023255
 \H,0,4.254689,0.013226,-2.155167\H,0,4.214234,-0.012637,2.197961\H,0,0
 .871266,-2.890132,-0.063337\H,0,-3.487985,-2.792314,-0.057209\H,0,0.87
 0812,2.890536,-0.059656\H,0,-3.488421,2.791992,-0.053144\N,0,5.726341,
 -0.000351,0.036858\H,0,6.241988,-0.005745,0.915609\H,0,6.260394,0.0047
 19,-0.83083\\Version=ES64L-G16RevC.01\State=1-A\HF=-966.7905314\RMSD=6
 .937e-09\Dipole=5.6190433,0.0000408,-0.1325568\Quadrupole=12.1045287,-
 0.4378844,-11.6666442,-0.0055336,0.9714662,-0.0388545\PG=C01 [X(C15H12
 B1F2N3)]\\@
 The archive entry for this job was punched.


 IF YOU GIVE A BOY AND A PIG EVERYTHING THEY WANT,
 YOU'LL GET A BAD BOY AND A GOOD PIG.
 Job cpu time:       0 days  0 hours 28 minutes  1.0 seconds.
 Elapsed time:       0 days  0 hours  0 minutes 55.6 seconds.
 File lengths (MBytes):  RWF=    498 Int=      0 D2E=      0 Chk=     25 Scr=      1
 Normal termination of Gaussian 16 at Fri Oct 10 17:04:04 2025.
