 Entering Gaussian System, Link 0=g16
 Initial command:
 /home/users/sutd/1008721/g16/l1.exe "/home/users/sutd/1008721/scratch/g16/scratch/Gau-2517470.inp" -scrdir="/home/users/sutd/1008721/scratch/g16/scratch/"
 Entering Link 1 = /home/users/sutd/1008721/g16/l1.exe PID=   2517471.
  
 Copyright (c) 1988-2019, Gaussian, Inc.  All Rights Reserved.
  
 This is part of the Gaussian(R) 16 program.  It is based on
 the Gaussian(R) 09 system (copyright 2009, Gaussian, Inc.),
 the Gaussian(R) 03 system (copyright 2003, Gaussian, Inc.),
 the Gaussian(R) 98 system (copyright 1998, Gaussian, Inc.),
 the Gaussian(R) 94 system (copyright 1995, Gaussian, Inc.),
 the Gaussian 92(TM) system (copyright 1992, Gaussian, Inc.),
 the Gaussian 90(TM) system (copyright 1990, Gaussian, Inc.),
 the Gaussian 88(TM) system (copyright 1988, Gaussian, Inc.),
 the Gaussian 86(TM) system (copyright 1986, Carnegie Mellon
 University), and the Gaussian 82(TM) system (copyright 1983,
 Carnegie Mellon University). Gaussian is a federally registered
 trademark of Gaussian, Inc.
  
 This software contains proprietary and confidential information,
 including trade secrets, belonging to Gaussian, Inc.
  
 This software is provided under written license and may be
 used, copied, transmitted, or stored only in accord with that
 written license.
  
 The following legend is applicable only to US Government
 contracts under FAR:
  
                    RESTRICTED RIGHTS LEGEND
  
 Use, reproduction and disclosure by the US Government is
 subject to restrictions as set forth in subparagraphs (a)
 and (c) of the Commercial Computer Software - Restricted
 Rights clause in FAR 52.227-19.
  
 Gaussian, Inc.
 340 Quinnipiac St., Bldg. 40, Wallingford CT 06492
  
  
 ---------------------------------------------------------------
 Warning -- This program may not be used in any manner that
 competes with the business of Gaussian, Inc. or will provide
 assistance to any competitor of Gaussian, Inc.  The licensee
 of this program is prohibited from giving any competitor of
 Gaussian, Inc. access to this program.  By using this program,
 the user acknowledges that Gaussian, Inc. is engaged in the
 business of creating and licensing software in the field of
 computational chemistry and represents and warrants to the
 licensee that it is not a competitor of Gaussian, Inc. and that
 it will not use this program in any manner prohibited above.
 ---------------------------------------------------------------
  

 Cite this work as:
 Gaussian 16, Revision C.01,
 M. J. Frisch, G. W. Trucks, H. B. Schlegel, G. E. Scuseria, 
 M. A. Robb, J. R. Cheeseman, G. Scalmani, V. Barone, 
 G. A. Petersson, H. Nakatsuji, X. Li, M. Caricato, A. V. Marenich, 
 J. Bloino, B. G. Janesko, R. Gomperts, B. Mennucci, H. P. Hratchian, 
 J. V. Ortiz, A. F. Izmaylov, J. L. Sonnenberg, D. Williams-Young, 
 F. Ding, F. Lipparini, F. Egidi, J. Goings, B. Peng, A. Petrone, 
 T. Henderson, D. Ranasinghe, V. G. Zakrzewski, J. Gao, N. Rega, 
 G. Zheng, W. Liang, M. Hada, M. Ehara, K. Toyota, R. Fukuda, 
 J. Hasegawa, M. Ishida, T. Nakajima, Y. Honda, O. Kitao, H. Nakai, 
 T. Vreven, K. Throssell, J. A. Montgomery, Jr., J. E. Peralta, 
 F. Ogliaro, M. J. Bearpark, J. J. Heyd, E. N. Brothers, K. N. Kudin, 
 V. N. Staroverov, T. A. Keith, R. Kobayashi, J. Normand, 
 K. Raghavachari, A. P. Rendell, J. C. Burant, S. S. Iyengar, 
 J. Tomasi, M. Cossi, J. M. Millam, M. Klene, C. Adamo, R. Cammi, 
 J. W. Ochterski, R. L. Martin, K. Morokuma, O. Farkas, 
 J. B. Foresman, and D. J. Fox, Gaussian, Inc., Wallingford CT, 2019.
 
 ******************************************
 Gaussian 16:  ES64L-G16RevC.01  3-Jul-2019
                10-Oct-2025 
 ******************************************
 %nprocshared=32
 Will use up to   32 processors via shared memory.
 %mem=64GB
 %chk=02BDP-NH2_ethanol_wb97xd_wb97xd_wb97xd.chk
 ----------------------------------------------------------
 # td=(nstates=6) wb97xd scrf=(smd,solvent=ethanol) def2svp
 ----------------------------------------------------------
 1/38=1,172=1/1;
 2/12=2,17=6,18=5,40=1/2;
 3/5=43,7=101,11=9,25=1,30=1,70=32201,72=4,74=-58/1,2,3,8;
 4//1;
 5/5=2,38=5,53=4/2;
 8/6=1,10=1,108=6/1;
 9/41=6,42=1,70=2/14;
 6/7=2,8=2,9=2,10=2/1;
 99/5=1,9=1/99;
 ------------------------------------
 BDP-NH2_ethanol_wb97xd_wb97xd_wb97xd
 ------------------------------------
 Symbolic Z-matrix:
 Charge =  0 Multiplicity = 1
 C                     0.62395  -1.21433  -0.06559 
 C                     0.62756   1.21627   0.04766 
 C                    -0.09137   0.00191  -0.00522 
 C                     0.17102  -2.54348  -0.23227 
 C                     1.29882  -3.35819  -0.28286 
 C                     2.41082  -2.51188  -0.16517 
 H                     1.32949  -4.43892  -0.40576 
 C                     2.41895   2.50969   0.11657 
 C                     0.17949   2.54991   0.19038 
 C                     1.31005   3.36178   0.22074 
 H                     1.34439   4.44485   0.31987 
 N                     2.01117  -1.23945  -0.0379 
 N                     2.01498   1.23623   0.01578 
 B                     2.94111  -0.00404   0.02261 
 F                     3.7048   -0.02448   1.1926 
 F                     3.79161   0.01326  -1.08445 
 C                    -1.55715   0.0025   -0.00089 
 C                    -2.28974   0.85161  -0.85324 
 C                    -2.28239  -0.84867   0.85573 
 C                    -3.67357   0.8462   -0.85996 
 H                    -1.76029   1.49871  -1.55594 
 C                    -3.6661   -0.84315   0.87474 
 H                    -1.74662  -1.49986   1.54979 
 C                    -4.39872   0.00347   0.01246 
 H                    -4.21747   1.49519  -1.55089 
 H                    -4.20384  -1.49478   1.56798 
 H                    -0.85751   2.86686   0.27752 
 H                     3.47899   2.76266   0.12508 
 H                    -0.86745  -2.85429  -0.32457 
 H                     3.46997  -2.76814  -0.1799 
 N                    -5.75726   0.0284    0.04283 
 H                    -6.25493  -0.70933   0.5255 
 H                    -6.25994   0.50003  -0.6986 
 
                          Input orientation:                          
 ---------------------------------------------------------------------
 Center     Atomic      Atomic             Coordinates (Angstroms)
 Number     Number       Type             X           Y           Z
 ---------------------------------------------------------------------
      1          6           0        0.623950   -1.214325   -0.065594
      2          6           0        0.627556    1.216274    0.047662
      3          6           0       -0.091367    0.001912   -0.005223
      4          6           0        0.171021   -2.543476   -0.232271
      5          6           0        1.298817   -3.358185   -0.282863
      6          6           0        2.410823   -2.511880   -0.165166
      7          1           0        1.329485   -4.438921   -0.405755
      8          6           0        2.418946    2.509689    0.116571
      9          6           0        0.179491    2.549905    0.190383
     10          6           0        1.310047    3.361780    0.220743
     11          1           0        1.344385    4.444846    0.319867
     12          7           0        2.011169   -1.239445   -0.037899
     13          7           0        2.014983    1.236228    0.015783
     14          5           0        2.941108   -0.004036    0.022608
     15          9           0        3.704802   -0.024479    1.192598
     16          9           0        3.791607    0.013260   -1.084451
     17          6           0       -1.557145    0.002497   -0.000887
     18          6           0       -2.289738    0.851612   -0.853236
     19          6           0       -2.282393   -0.848666    0.855729
     20          6           0       -3.673572    0.846196   -0.859960
     21          1           0       -1.760286    1.498705   -1.555940
     22          6           0       -3.666101   -0.843150    0.874742
     23          1           0       -1.746618   -1.499864    1.549792
     24          6           0       -4.398716    0.003473    0.012462
     25          1           0       -4.217473    1.495186   -1.550892
     26          1           0       -4.203838   -1.494782    1.567976
     27          1           0       -0.857514    2.866863    0.277516
     28          1           0        3.478985    2.762656    0.125084
     29          1           0       -0.867447   -2.854294   -0.324569
     30          1           0        3.469973   -2.768143   -0.179898
     31          7           0       -5.757255    0.028398    0.042830
     32          1           0       -6.254933   -0.709333    0.525504
     33          1           0       -6.259937    0.500028   -0.698600
 ---------------------------------------------------------------------
                    Distance matrix (angstroms):
                    1          2          3          4          5
     1  C    0.000000
     2  C    2.433239   0.000000
     3  C    1.412287   1.412205   0.000000
     4  C    1.414061   3.797698   2.568929   0.000000
     5  C    2.258049   4.635247   3.646909   1.392205   0.000000
     6  C    2.210538   4.138172   3.550449   2.241030   1.402370
     7  H    3.318359   5.716601   4.679770   2.228194   1.088133
     8  C    4.138052   2.210599   3.550416   5.541600   5.987168
     9  C    3.799012   1.414109   2.569804   5.110894   6.031781
    10  C    4.636103   2.258085   3.647429   6.031140   6.738818
    11  H    5.717851   3.318376   4.680463   7.107622   7.826407
    12  N    1.387723   2.819975   2.441863   2.263719   2.248669
    13  N    2.819008   1.387937   2.441452   4.212824   4.659476
    14  B    2.615684   2.615780   3.032609   3.766577   3.747099
    15  F    3.534180   3.509956   3.980750   4.567626   4.367991
    16  F    3.546701   3.569333   4.030180   4.513508   4.268862
    17  C    2.498403   2.499706   1.465785   3.085786   4.419300
    18  C    3.657602   3.074931   2.504786   4.238815   5.561065
    19  C    3.070728   3.658518   2.503061   3.174172   4.518755
    20  C    4.831714   4.411399   3.778304   5.163794   6.537164
    21  H    3.907204   2.890172   2.725877   4.671325   5.879474
    22  C    4.407555   4.833299   3.777194   4.340517   5.684704
    23  H    2.882811   3.907749   2.722730   2.818193   4.010817
    24  C    5.168781   5.170642   4.307386   5.237303   6.621921
    25  H    5.743426   5.109547   4.652280   6.108063   7.456042
    26  H    5.104385   5.744871   4.650534   4.845621   6.097302
    27  H    4.355291   2.232198   2.979071   5.530781   6.611733
    28  H    4.899384   3.244679   4.515097   6.263016   6.510319
    29  H    2.231778   4.352369   2.976944   1.087907   2.224488
    30  H    3.244574   4.899663   4.515181   3.307008   2.252259
    31  N    6.501992   6.494373   5.666154   6.467973   7.833465
    32  H    6.922676   7.162747   6.227125   6.725414   8.045434
    33  H    7.122331   6.964731   6.227371   7.130049   8.496670
                    6          7          8          9         10
     6  C    0.000000
     7  H    2.222760   0.000000
     8  C    5.029473   7.052867   0.000000
     9  C    5.543187   7.107852   2.241032   0.000000
    10  C    5.988365   7.825843   1.402344   1.392200   0.000000
    11  H    7.054685   8.913364   2.222801   2.228126   1.088134
    12  N    1.339780   3.291908   3.774407   4.215013   4.661517
    13  N    3.773294   5.731921   1.339794   2.263904   2.248758
    14  B    2.570164   4.738041   2.569104   3.765274   3.745442
    15  F    3.115296   5.261574   3.038629   4.478806   4.259824
    16  F    3.021255   5.132698   3.091732   4.594252   4.367409
    17  C    4.700409   5.312508   4.702032   3.088977   4.422069
    18  C    5.820807   6.425633   5.085415   3.173394   4.518056
    19  C    5.082793   5.246612   5.824731   4.248981   5.571058
    20  C    6.984216   7.291731   6.390587   4.341882   5.686171
    21  H    5.951235   6.791540   4.613606   2.813788   4.006819
    22  C    6.387102   6.286901   6.988859   5.173949   6.547610
    23  H    4.609726   4.682374   5.956724   4.685992   5.894502
    24  C    7.261431   7.260996   7.264466   5.241751   6.626581
    25  H    7.868362   8.203274   6.917493   4.845386   6.097240
    26  H    6.913177   6.571243   7.874239   6.121342   7.470218
    27  H    6.309427   7.656651   3.299798   1.087857   2.224070
    28  H    5.389429   7.534245   1.089838   3.306991   2.252197
    29  H    3.299956   2.710008   6.306132   5.528709   6.608965
    30  H    1.089810   2.724738   5.389625   6.264664   6.511663
    31  N    8.556505   8.389282   8.544736   6.451722   7.815999
    32  H    8.878149   8.502968   9.260967   7.220578   8.596264
    33  H    9.194467   9.059708   8.945739   6.816049   8.144905
                   11         12         13         14         15
    11  H    0.000000
    12  N    5.734436   0.000000
    13  N    3.292020   2.476258   0.000000
    14  B    4.736078   1.547476   1.547905   0.000000
    15  F    5.129142   2.420466   2.414490   1.397327   0.000000
    16  F    5.253566   2.415471   2.421272   1.396147   2.279015
    17  C    5.315658   3.778446   3.779215   4.498319   5.395667
    18  C    5.243506   4.851298   4.408372   5.372242   6.394332
    19  C    6.439094   4.402948   4.849715   5.356534   6.053038
    20  C    6.286666   6.110807   5.768770   6.727244   7.707884
    21  H    4.673048   4.901611   4.097788   5.182002   6.304105
    22  C    7.305871   5.763797   6.110347   6.714570   7.423036
    23  H    6.812238   4.087731   4.897859   5.152142   5.658827
    24  C    7.266602   6.529472   6.531097   7.339835   8.189048
    25  H    6.567686   6.968740   6.431566   7.481233   8.520479
    26  H    8.223122   6.424200   6.967170   7.460613   8.052905
    27  H    2.709277   5.019023   3.313414   4.768288   5.478317
    28  H    2.724742   4.265895   2.117836   2.820354   2.993109
    29  H    7.654080   3.313057   5.015637   4.769653   5.587048
    30  H    7.536252   2.117827   4.265006   2.821523   3.076781
    31  N    8.367500   7.871617   7.865575   8.698447   9.531804
    32  H    9.184633   8.302222   8.510966   9.236748  10.005517
    33  H    8.626968   8.477823   8.338263   9.243022  10.156169
                   16         17         18         19         20
    16  F    0.000000
    17  C    5.457415   0.000000
    18  C    6.143212   1.408612   0.000000
    19  C    6.434337   1.408636   2.410718   0.000000
    20  C    7.514857   2.434974   1.383861   2.784156   0.000000
    21  H    5.766486   2.167509   1.092173   3.405715   2.137947
    22  C    7.758175   2.435065   2.784331   1.383850   2.421391
    23  H    6.316701   2.167393   3.405725   1.092171   3.876087
    24  C    8.263456   2.841603   2.432398   2.432296   1.413201
    25  H    8.158372   3.421693   2.148738   3.876855   1.092888
    26  H    8.557844   3.421719   3.877062   2.148654   3.414123
    27  H    5.622484   2.961686   2.718658   4.021165   3.647894
    28  H    3.019915   5.744297   6.155271   6.838784   7.470087
    29  H    5.523321   2.956638   4.004515   2.723549   4.674891
    30  H    2.942425   5.742857   6.835955   6.151961   8.034685
    31  N    9.615184   4.200417   3.674818   3.674876   2.413619
    32  H   10.200346   4.780481   4.478866   3.988676   3.317018
    33  H   10.070718   4.780229   3.988735   4.478367   2.614413
                   21         22         23         24         25
    21  H    0.000000
    22  C    3.876162   0.000000
    23  H    4.317079   2.138079   0.000000
    24  C    3.414223   1.413160   3.414239   0.000000
    25  H    2.457195   3.414019   4.968872   2.168440   0.000000
    26  H    4.968980   1.092867   2.457293   2.168495   4.320582
    27  H    2.459352   4.691379   4.634382   4.561729   4.063730
    28  H    5.645651   8.038413   6.892445   8.347691   7.978148
    29  H    4.611078   3.649043   2.473995   4.555248   5.625346
    30  H    6.888766   7.466017   5.640317   8.344766   8.896765
    31  N    4.549025   2.413421   4.548816   1.359107   2.657507
    32  H    5.423070   2.615707   4.690310   2.053496   3.650009
    33  H    4.688203   3.317758   5.424471   2.053368   2.426603
                   26         27         28         29         30
    26  H    0.000000
    27  H    5.646868   0.000000
    28  H    8.901319   4.340428   0.000000
    29  H    4.069583   5.752760   7.116445   0.000000
    30  H    7.972696   7.119667   5.539209   4.340687   0.000000
    31  N    2.656925   5.667400   9.632812   5.688156   9.644272
    32  H    2.431187   6.479414  10.342350   5.860758   9.965445
    33  H    3.652968   5.978368  10.032175   6.361629  10.277215
                   31         32         33
    31  N    0.000000
    32  H    1.012376   0.000000
    33  H    1.012345   1.720758   0.000000
 Stoichiometry    C15H12BF2N3
 Framework group  C1[X(C15H12BF2N3)]
 Deg. of freedom    93
 Full point group                 C1      NOp   1
 Largest Abelian subgroup         C1      NOp   1
 Largest concise Abelian subgroup C1      NOp   1
                         Standard orientation:                         
 ---------------------------------------------------------------------
 Center     Atomic      Atomic             Coordinates (Angstroms)
 Number     Number       Type             X           Y           Z
 ---------------------------------------------------------------------
      1          6           0        0.623950   -1.214325   -0.065594
      2          6           0        0.627556    1.216274    0.047662
      3          6           0       -0.091367    0.001912   -0.005223
      4          6           0        0.171021   -2.543476   -0.232271
      5          6           0        1.298817   -3.358185   -0.282863
      6          6           0        2.410823   -2.511880   -0.165166
      7          1           0        1.329485   -4.438921   -0.405755
      8          6           0        2.418946    2.509689    0.116571
      9          6           0        0.179491    2.549905    0.190383
     10          6           0        1.310047    3.361780    0.220743
     11          1           0        1.344385    4.444846    0.319867
     12          7           0        2.011169   -1.239445   -0.037899
     13          7           0        2.014983    1.236228    0.015783
     14          5           0        2.941108   -0.004036    0.022608
     15          9           0        3.704802   -0.024479    1.192598
     16          9           0        3.791607    0.013260   -1.084451
     17          6           0       -1.557145    0.002497   -0.000887
     18          6           0       -2.289738    0.851612   -0.853236
     19          6           0       -2.282393   -0.848666    0.855729
     20          6           0       -3.673572    0.846196   -0.859960
     21          1           0       -1.760286    1.498705   -1.555940
     22          6           0       -3.666101   -0.843150    0.874742
     23          1           0       -1.746618   -1.499864    1.549792
     24          6           0       -4.398716    0.003473    0.012462
     25          1           0       -4.217473    1.495186   -1.550892
     26          1           0       -4.203838   -1.494782    1.567976
     27          1           0       -0.857514    2.866863    0.277516
     28          1           0        3.478985    2.762656    0.125084
     29          1           0       -0.867447   -2.854294   -0.324569
     30          1           0        3.469973   -2.768143   -0.179898
     31          7           0       -5.757255    0.028398    0.042830
     32          1           0       -6.254933   -0.709333    0.525504
     33          1           0       -6.259937    0.500028   -0.698600
 ---------------------------------------------------------------------
 Rotational constants (GHZ):           0.5799245           0.2146276           0.1669170
 Standard basis: def2SVP (5D, 7F)
 There are   375 symmetry adapted cartesian basis functions of A   symmetry.
 There are   354 symmetry adapted basis functions of A   symmetry.
   354 basis functions,   609 primitive gaussians,   375 cartesian basis functions
    73 alpha electrons       73 beta electrons
       nuclear repulsion energy      1589.6986751008 Hartrees.
 NAtoms=   33 NActive=   33 NUniq=   33 SFac= 1.00D+00 NAtFMM=   60 NAOKFM=F Big=F
 Integral buffers will be    131072 words long.
 Raffenetti 1 integral format.
 Two-electron integral symmetry is turned on.
 Nuclear repulsion after empirical dispersion term =     1589.6733796713 Hartrees.
 ------------------------------------------------------------------------------
 Polarizable Continuum Model (PCM)
 =================================
 Model                : PCM.
 Atomic radii         : SMD-Coulomb.
 Polarization charges : Total charges.
 Charge compensation  : None.
 Solution method      : On-the-fly selection.
 Cavity type          : VdW (van der Waals Surface) (Alpha=1.000).
 Cavity algorithm     : GePol (No added spheres)
                        Default sphere list used, NSphG=   33.
                        Lebedev-Laikov grids with approx.  5.0 points / Ang**2.
                        Smoothing algorithm: York/Karplus (Gamma=1.0000).
                        Polarization charges: spherical gaussians, with
                                              point-specific exponents (IZeta= 3).
                        Self-potential: point-specific (ISelfS= 7).
                        Self-field    : sphere-specific E.n sum rule (ISelfD= 2).
 Solvent              : Ethanol, Eps=  24.852000 Eps(inf)=   1.852593
 ------------------------------------------------------------------------------
 ------------------------------------------------------------------------------
 Atomic radii for non-electrostatic terms: SMD-CDS.
 ------------------------------------------------------------------------------
 Nuclear repulsion after PCM non-electrostatic terms =     1589.6725729784 Hartrees.
 One-electron integrals computed using PRISM.
   1 Symmetry operations used in ECPInt.
 ECPInt:  NShTT=   13203 NPrTT=   49137 LenC2=   11970 LenP2D=   31023.
 LDataN:  DoStor=T MaxTD1= 4 Len=   56
 NBasis=   354 RedAO= T EigKep=  2.58D-04  NBF=   354
 NBsUse=   354 1.00D-06 EigRej= -1.00D+00 NBFU=   354
 ExpMin= 8.36D-02 ExpMax= 2.89D+03 ExpMxC= 4.35D+02 IAcc=3 IRadAn=         5 AccDes= 0.00D+00
 Harris functional with IExCor= 4639 and IRadAn=       5 diagonalized for initial guess.
 HarFok:  IExCor= 4639 AccDes= 0.00D+00 IRadAn=         5 IDoV= 1 UseB2=F ITyADJ=14
 ICtDFT=  3500011 ScaDFX=  1.000000  1.000000  1.000000  1.000000
 FoFCou: FMM=F IPFlag=           0 FMFlag=      100000 FMFlg1=           0
         NFxFlg=           0 DoJE=T BraDBF=F KetDBF=T FulRan=T
         wScrn=  0.000000 ICntrl=       500 IOpCl=  0 I1Cent=   200000004 NGrid=           0
         NMat0=    1 NMatS0=      1 NMatT0=    0 NMatD0=    1 NMtDS0=    0 NMtDT0=    0
 Petite list used in FoFCou.
 Requested convergence on RMS density matrix=1.00D-08 within 128 cycles.
 Requested convergence on MAX density matrix=1.00D-06.
 Requested convergence on             energy=1.00D-06.
 No special actions if energy rises.
 Inv3:  Mode=1 IEnd=    19722288.
 Iteration    1 A*A^-1 deviation from unit magnitude is 5.66D-15 for   2545.
 Iteration    1 A*A^-1 deviation from orthogonality  is 2.18D-15 for   2179   1497.
 Iteration    1 A^-1*A deviation from unit magnitude is 5.44D-15 for   2545.
 Iteration    1 A^-1*A deviation from orthogonality  is 1.68D-15 for   1585   1024.
 Error on total polarization charges =  0.03805
 SCF Done:  E(RwB97XD) =  -966.821937908     A.U. after   14 cycles
            NFock= 14  Conv=0.10D-07     -V/T= 2.0099
 SMD-CDS (non-electrostatic) energy       (kcal/mol) =      -0.51
 (included in total energy above)
 DoSCS=F DFT=T ScalE2(SS,OS)=  1.000000  1.000000
 ExpMin= 8.36D-02 ExpMax= 2.89D+03 ExpMxC= 4.35D+02 IAcc=3 IRadAn=         5 AccDes= 0.00D+00
 HarFok:  IExCor=  205 AccDes= 0.00D+00 IRadAn=         5 IDoV=-2 UseB2=F ITyADJ=14
 ICtDFT= 12500011 ScaDFX=  1.000000  1.000000  1.000000  1.000000
 GSVD:  LWork=        -609 too small for GESVD, short by        2520 words or        2520 for optimal perf.
 Range of M.O.s used for correlation:    22   354
 NBasis=   354 NAE=    73 NBE=    73 NFC=    21 NFV=     0
 NROrb=    333 NOA=    52 NOB=    52 NVA=   281 NVB=   281

 **** Warning!!: The largest alpha MO coefficient is  0.15362167D+02

 NEqPCM:  Using non-equilibrium solvation (IEInf=1, Eps=  24.8520, EpsInf=   1.8526)
 Inv3:  Mode=1 IEnd=    19722288.
 Iteration    1 A*A^-1 deviation from unit magnitude is 6.22D-15 for   2545.
 Iteration    1 A*A^-1 deviation from orthogonality  is 1.77D-15 for    995    238.
 Iteration    1 A^-1*A deviation from unit magnitude is 6.00D-15 for   2545.
 Iteration    1 A^-1*A deviation from orthogonality  is 1.62D-15 for   1608   1134.
 Orbital symmetries:
       Occupied  (A) (A) (A) (A) (A) (A) (A) (A) (A) (A) (A) (A)
                 (A) (A) (A) (A) (A) (A) (A) (A) (A) (A) (A) (A)
                 (A) (A) (A) (A) (A) (A) (A) (A) (A) (A) (A) (A)
                 (A) (A) (A) (A) (A) (A) (A) (A) (A) (A) (A) (A)
                 (A) (A) (A) (A) (A) (A) (A) (A) (A) (A) (A) (A)
                 (A) (A) (A) (A) (A) (A) (A) (A) (A) (A) (A) (A)
                 (A)
       Virtual   (A) (A) (A) (A) (A) (A) (A) (A) (A) (A) (A) (A)
                 (A) (A) (A) (A) (A) (A) (A) (A) (A) (A) (A) (A)
                 (A) (A) (A) (A) (A) (A) (A) (A) (A) (A) (A) (A)
                 (A) (A) (A) (A) (A) (A) (A) (A) (A) (A) (A) (A)
                 (A) (A) (A) (A) (A) (A) (A) (A) (A) (A) (A) (A)
                 (A) (A) (A) (A) (A) (A) (A) (A) (A) (A) (A) (A)
                 (A) (A) (A) (A) (A) (A) (A) (A) (A) (A) (A) (A)
                 (A) (A) (A) (A) (A) (A) (A) (A) (A) (A) (A) (A)
                 (A) (A) (A) (A) (A) (A) (A) (A) (A) (A) (A) (A)
                 (A) (A) (A) (A) (A) (A) (A) (A) (A) (A) (A) (A)
                 (A) (A) (A) (A) (A) (A) (A) (A) (A) (A) (A) (A)
                 (A) (A) (A) (A) (A) (A) (A) (A) (A) (A) (A) (A)
                 (A) (A) (A) (A) (A) (A) (A) (A) (A) (A) (A) (A)
                 (A) (A) (A) (A) (A) (A) (A) (A) (A) (A) (A) (A)
                 (A) (A) (A) (A) (A) (A) (A) (A) (A) (A) (A) (A)
                 (A) (A) (A) (A) (A) (A) (A) (A) (A) (A) (A) (A)
                 (A) (A) (A) (A) (A) (A) (A) (A) (A) (A) (A) (A)
                 (A) (A) (A) (A) (A) (A) (A) (A) (A) (A) (A) (A)
                 (A) (A) (A) (A) (A) (A) (A) (A) (A) (A) (A) (A)
                 (A) (A) (A) (A) (A) (A) (A) (A) (A) (A) (A) (A)
                 (A) (A) (A) (A) (A) (A) (A) (A) (A) (A) (A) (A)
                 (A) (A) (A) (A) (A) (A) (A) (A) (A) (A) (A) (A)
                 (A) (A) (A) (A) (A) (A) (A) (A) (A) (A) (A) (A)
                 (A) (A) (A) (A) (A)
    24 initial guesses have been made.
 Convergence on wavefunction:    0.001000000000000
 Iteration     1 Dimension    24 NMult     0 NNew     24
 CISAX will form    24 AO SS matrices at one time.
 New state      6 was old state      7
 Iteration     2 Dimension    36 NMult    24 NNew     12
 New state      4 was old state      5
 New state      5 was old state      4
 Iteration     3 Dimension    48 NMult    36 NNew     12
 Iteration     4 Dimension    60 NMult    48 NNew     12
 Iteration     5 Dimension    72 NMult    60 NNew     12
 Iteration     6 Dimension    74 NMult    72 NNew      2
 ***********************************************************************
 Excited states from <AA,BB:AA,BB> singles matrix:
 ***********************************************************************
 
 Ground to excited state transition densities written to RWF  633
 Ground to excited state transition electric dipole moments (Au):
       state          X           Y           Z        Dip. S.      Osc.
         1         2.3982     -0.0065     -0.0177      5.7517      0.4263
         2         0.0067      2.6952      0.2071      7.3069      0.5478
         3        -0.0042     -0.7963     -0.1093      0.6460      0.0642
         4        -0.7844      0.0039     -0.0025      0.6153      0.0654
         5        -0.0043     -0.1959     -0.0300      0.0393      0.0043
         6        -0.0024     -0.5853      0.5630      0.6596      0.0797
 Ground to excited state transition velocity dipole moments (Au):
       state          X           Y           Z        Dip. S.      Osc.
         1        -0.2533      0.0006      0.0017      0.0641      0.3846
         2        -0.0008     -0.2942     -0.0230      0.0871      0.5162
         3         0.0006      0.1203      0.0174      0.0148      0.0661
         4         0.1216     -0.0006      0.0005      0.0148      0.0619
         5         0.0007      0.0303      0.0062      0.0010      0.0039
         6         0.0003      0.1131     -0.1077      0.0244      0.0897
 Ground to excited state transition magnetic dipole moments (Au):
       state          X           Y           Z
         1         0.0532      0.0048     -0.0038
         2        -0.0031     -0.0531      0.5386
         3         0.0013     -0.1488      1.3066
         4        -0.0461     -0.0157     -0.0061
         5         0.0022      0.3191      0.4467
         6         0.0135     -0.2738     -0.2617
 Ground to excited state transition velocity quadrupole moments (Au):
       state          XX          YY          ZZ          XY          XZ          YZ
         1         1.4067     -0.6457      0.0291     -0.0066     -0.0049     -0.0988
         2        -0.0025     -0.0009      0.0020     -0.9640     -0.0330      0.0147
         3        -0.0031      0.0040     -0.0009     -0.0107     -0.0261     -0.0033
         4         0.3614     -0.1624     -0.0089     -0.0007      0.0009     -0.0270
         5         0.0067     -0.0017     -0.0014     -0.0455      0.0726     -0.0013
         6         0.0050      0.0056     -0.0060     -0.6074      0.7104      0.0007
 <0|del|b> * <b|rxdel|0> + <0|del|b> * <b|delr+rdel|0>
 Rotatory Strengths (R) in cgs (10**-40 erg-esu-cm/Gauss)
       state          XX          YY          ZZ    R(velocity)    E-M Angle
         1        -0.0379     36.7862   -122.3880    -28.5465      173.57
         2        49.4186   -108.6849     79.7031      6.8122       88.83
         3        18.5082     54.3982    -49.8947      7.6706       88.26
         4         0.0157    -19.7365     -5.1251     -8.2819      159.73
         5        21.6005      6.6370     25.7320     17.9899       42.86
         6       -34.5959    -72.5836     96.3175     -3.6207       92.70
 1/2[<0|r|b>*<b|rxdel|0> + (<0|rxdel|b>*<b|r|0>)*]
 Rotatory Strengths (R) in cgs (10**-40 erg-esu-cm/Gauss)
       state          XX          YY          ZZ     R(length)
         1       -90.1447      0.0223     -0.0470    -30.0565
         2         0.0148    101.2867    -78.8640      7.4792
         3         0.0037    -83.8026    100.9628      5.7213
         4       -25.5815      0.0436     -0.0110     -8.5163
         5         0.0068     44.2181      9.4631     17.8960
         6         0.0234   -113.3142    104.1879     -3.0343
  1/2[<0|del|b>*<b|r|0> + (<0|r|b>*<b|del|0>)*] (Au)
       state          X           Y           Z        Dip. S.   Osc.(frdel)
         1        -0.6074     -0.0000     -0.0000      0.6074      0.4049
         2        -0.0000     -0.7929     -0.0048      0.7976      0.5318
         3        -0.0000     -0.0958     -0.0019      0.0977      0.0651
         4        -0.0954     -0.0000     -0.0000      0.0954      0.0636
         5        -0.0000     -0.0059     -0.0002      0.0061      0.0041
         6        -0.0000     -0.0662     -0.0606      0.1268      0.0845

 Excitation energies and oscillator strengths:
 
 Excited State   1:      Singlet-A      3.0255 eV  409.79 nm  f=0.4263  <S**2>=0.000
      73 -> 74         0.68941
 This state for optimization and/or second-order correction.
 Total Energy, E(TD-HF/TD-DFT) =  -966.710752162    
 Copying the excited state density for this state as the 1-particle RhoCI density.
 
 Excited State   2:      Singlet-A      3.0598 eV  405.20 nm  f=0.5478  <S**2>=0.000
      72 -> 74         0.69737
 
 Excited State   3:      Singlet-A      4.0571 eV  305.60 nm  f=0.0642  <S**2>=0.000
      70 -> 74         0.29200
      71 -> 74         0.63448
 
 Excited State   4:      Singlet-A      4.3397 eV  285.70 nm  f=0.0654  <S**2>=0.000
      69 -> 74         0.69855
 
 Excited State   5:      Singlet-A      4.4453 eV  278.91 nm  f=0.0043  <S**2>=0.000
      70 -> 74         0.59997
      71 -> 74        -0.26149
      73 -> 75         0.23532
 
 Excited State   6:      Singlet-A      4.9322 eV  251.38 nm  f=0.0797  <S**2>=0.000
      70 -> 74        -0.21760
      70 -> 76         0.12536
      71 -> 74         0.13808
      73 -> 75         0.63687
 SavETr:  write IOETrn=   770 NScale= 10 NData=  16 NLR=1 NState=    6 LETran=     118.

 **********************************************************************

            Population analysis using the SCF Density.

 **********************************************************************

 Orbital symmetries:
       Occupied  (A) (A) (A) (A) (A) (A) (A) (A) (A) (A) (A) (A)
                 (A) (A) (A) (A) (A) (A) (A) (A) (A) (A) (A) (A)
                 (A) (A) (A) (A) (A) (A) (A) (A) (A) (A) (A) (A)
                 (A) (A) (A) (A) (A) (A) (A) (A) (A) (A) (A) (A)
                 (A) (A) (A) (A) (A) (A) (A) (A) (A) (A) (A) (A)
                 (A) (A) (A) (A) (A) (A) (A) (A) (A) (A) (A) (A)
                 (A)
       Virtual   (A) (A) (A) (A) (A) (A) (A) (A) (A) (A) (A) (A)
                 (A) (A) (A) (A) (A) (A) (A) (A) (A) (A) (A) (A)
                 (A) (A) (A) (A) (A) (A) (A) (A) (A) (A) (A) (A)
                 (A) (A) (A) (A) (A) (A) (A) (A) (A) (A) (A) (A)
                 (A) (A) (A) (A) (A) (A) (A) (A) (A) (A) (A) (A)
                 (A) (A) (A) (A) (A) (A) (A) (A) (A) (A) (A) (A)
                 (A) (A) (A) (A) (A) (A) (A) (A) (A) (A) (A) (A)
                 (A) (A) (A) (A) (A) (A) (A) (A) (A) (A) (A) (A)
                 (A) (A) (A) (A) (A) (A) (A) (A) (A) (A) (A) (A)
                 (A) (A) (A) (A) (A) (A) (A) (A) (A) (A) (A) (A)
                 (A) (A) (A) (A) (A) (A) (A) (A) (A) (A) (A) (A)
                 (A) (A) (A) (A) (A) (A) (A) (A) (A) (A) (A) (A)
                 (A) (A) (A) (A) (A) (A) (A) (A) (A) (A) (A) (A)
                 (A) (A) (A) (A) (A) (A) (A) (A) (A) (A) (A) (A)
                 (A) (A) (A) (A) (A) (A) (A) (A) (A) (A) (A) (A)
                 (A) (A) (A) (A) (A) (A) (A) (A) (A) (A) (A) (A)
                 (A) (A) (A) (A) (A) (A) (A) (A) (A) (A) (A) (A)
                 (A) (A) (A) (A) (A) (A) (A) (A) (A) (A) (A) (A)
                 (A) (A) (A) (A) (A) (A) (A) (A) (A) (A) (A) (A)
                 (A) (A) (A) (A) (A) (A) (A) (A) (A) (A) (A) (A)
                 (A) (A) (A) (A) (A) (A) (A) (A) (A) (A) (A) (A)
                 (A) (A) (A) (A) (A) (A) (A) (A) (A) (A) (A) (A)
                 (A) (A) (A) (A) (A) (A) (A) (A) (A) (A) (A) (A)
                 (A) (A) (A) (A) (A)
 The electronic state is 1-A.
 Alpha  occ. eigenvalues --  -24.76771 -24.76708 -14.47967 -14.47960 -14.45330
 Alpha  occ. eigenvalues --  -10.36574 -10.35482 -10.34240 -10.34236 -10.33822
 Alpha  occ. eigenvalues --  -10.33812 -10.31394 -10.31373 -10.31334 -10.31188
 Alpha  occ. eigenvalues --  -10.31182 -10.29900 -10.29897 -10.29765 -10.29762
 Alpha  occ. eigenvalues --   -6.94040  -1.25437  -1.22022  -1.09329  -1.07528
 Alpha  occ. eigenvalues --   -1.01968  -0.95896  -0.91001  -0.88668  -0.87230
 Alpha  occ. eigenvalues --   -0.84616  -0.82530  -0.82101  -0.75681  -0.71333
 Alpha  occ. eigenvalues --   -0.70193  -0.69791  -0.67121  -0.66974  -0.66528
 Alpha  occ. eigenvalues --   -0.63116  -0.62031  -0.60393  -0.59849  -0.59442
 Alpha  occ. eigenvalues --   -0.57739  -0.55664  -0.53853  -0.53206  -0.52881
 Alpha  occ. eigenvalues --   -0.52592  -0.52300  -0.51437  -0.51319  -0.50618
 Alpha  occ. eigenvalues --   -0.49706  -0.48927  -0.48326  -0.47511  -0.46889
 Alpha  occ. eigenvalues --   -0.46825  -0.46480  -0.45242  -0.45124  -0.43246
 Alpha  occ. eigenvalues --   -0.42736  -0.41630  -0.37453  -0.34830  -0.34347
 Alpha  occ. eigenvalues --   -0.33891  -0.28974  -0.27891
 Alpha virt. eigenvalues --   -0.04965   0.05540   0.06915   0.09762   0.11572
 Alpha virt. eigenvalues --    0.13742   0.15658   0.17027   0.17661   0.17763
 Alpha virt. eigenvalues --    0.18334   0.18458   0.20366   0.21096   0.21882
 Alpha virt. eigenvalues --    0.22340   0.22518   0.22632   0.23949   0.24501
 Alpha virt. eigenvalues --    0.26080   0.26181   0.28136   0.28478   0.29017
 Alpha virt. eigenvalues --    0.30660   0.31351   0.32154   0.34259   0.34817
 Alpha virt. eigenvalues --    0.36117   0.36252   0.37537   0.38391   0.38885
 Alpha virt. eigenvalues --    0.39907   0.40401   0.41943   0.44304   0.44629
 Alpha virt. eigenvalues --    0.45478   0.46202   0.47417   0.48591   0.48937
 Alpha virt. eigenvalues --    0.48971   0.49477   0.49608   0.49898   0.50405
 Alpha virt. eigenvalues --    0.51771   0.52986   0.53277   0.54275   0.55039
 Alpha virt. eigenvalues --    0.55844   0.56862   0.57599   0.57676   0.59159
 Alpha virt. eigenvalues --    0.59590   0.60162   0.60669   0.62843   0.63945
 Alpha virt. eigenvalues --    0.64337   0.64730   0.65278   0.66030   0.66396
 Alpha virt. eigenvalues --    0.67517   0.67901   0.69297   0.72005   0.72688
 Alpha virt. eigenvalues --    0.73647   0.73915   0.74040   0.74881   0.75092
 Alpha virt. eigenvalues --    0.76286   0.77101   0.77265   0.78206   0.79154
 Alpha virt. eigenvalues --    0.79568   0.79663   0.80667   0.81531   0.81853
 Alpha virt. eigenvalues --    0.82290   0.83204   0.84008   0.84016   0.85284
 Alpha virt. eigenvalues --    0.85548   0.87305   0.87892   0.90247   0.90828
 Alpha virt. eigenvalues --    0.91663   0.92737   0.94788   0.94938   0.95629
 Alpha virt. eigenvalues --    0.97235   0.98743   1.00279   1.01994   1.04329
 Alpha virt. eigenvalues --    1.06052   1.07355   1.08516   1.09682   1.14119
 Alpha virt. eigenvalues --    1.14610   1.16151   1.16966   1.17841   1.20498
 Alpha virt. eigenvalues --    1.21766   1.22289   1.23638   1.25259   1.26384
 Alpha virt. eigenvalues --    1.29361   1.29970   1.31866   1.32934   1.33110
 Alpha virt. eigenvalues --    1.33377   1.34132   1.35372   1.35892   1.36595
 Alpha virt. eigenvalues --    1.37276   1.37891   1.38900   1.39289   1.40990
 Alpha virt. eigenvalues --    1.42008   1.42870   1.44029   1.44993   1.46215
 Alpha virt. eigenvalues --    1.47369   1.50312   1.56171   1.57516   1.57867
 Alpha virt. eigenvalues --    1.59015   1.62437   1.62948   1.63749   1.68559
 Alpha virt. eigenvalues --    1.70535   1.71638   1.72105   1.72666   1.74246
 Alpha virt. eigenvalues --    1.74713   1.75096   1.76053   1.78329   1.79290
 Alpha virt. eigenvalues --    1.79938   1.80726   1.81468   1.82617   1.83129
 Alpha virt. eigenvalues --    1.83842   1.84833   1.85083   1.85347   1.86025
 Alpha virt. eigenvalues --    1.87964   1.88057   1.89048   1.91864   1.92924
 Alpha virt. eigenvalues --    1.94408   1.94738   1.94818   1.95446   1.95681
 Alpha virt. eigenvalues --    1.99161   2.00331   2.00831   2.01415   2.02243
 Alpha virt. eigenvalues --    2.03031   2.03979   2.04237   2.05111   2.06810
 Alpha virt. eigenvalues --    2.06939   2.07616   2.10810   2.11001   2.13058
 Alpha virt. eigenvalues --    2.15383   2.17772   2.21058   2.21164   2.22073
 Alpha virt. eigenvalues --    2.22996   2.23313   2.23972   2.26041   2.26181
 Alpha virt. eigenvalues --    2.28005   2.28607   2.29162   2.31271   2.33577
 Alpha virt. eigenvalues --    2.34420   2.35629   2.36999   2.38618   2.40578
 Alpha virt. eigenvalues --    2.41042   2.41559   2.42175   2.43384   2.44345
 Alpha virt. eigenvalues --    2.46422   2.48354   2.53988   2.58032   2.61039
 Alpha virt. eigenvalues --    2.63155   2.64392   2.65370   2.66597   2.69143
 Alpha virt. eigenvalues --    2.72275   2.73331   2.74350   2.75258   2.75646
 Alpha virt. eigenvalues --    2.77361   2.78075   2.78991   2.79968   2.80246
 Alpha virt. eigenvalues --    2.81257   2.81702   2.82635   2.85103   2.90255
 Alpha virt. eigenvalues --    2.93583   2.95112   2.96026   2.97780   3.00177
 Alpha virt. eigenvalues --    3.01041   3.07281   3.09654   3.10208   3.16293
 Alpha virt. eigenvalues --    3.17540   3.18668   3.19053   3.21564   3.22769
 Alpha virt. eigenvalues --    3.26037   3.26432   3.29455   3.33133   3.36014
 Alpha virt. eigenvalues --    3.39561   3.51208   3.54161   3.54675   3.55802
 Alpha virt. eigenvalues --    3.59546   3.61936   3.69867   3.72802   3.83821
 Alpha virt. eigenvalues --    3.84055
          Condensed to atoms (all electrons):
               1          2          3          4          5          6
     1  C    5.212609  -0.041257   0.289618   0.400024  -0.013765  -0.136141
     2  C   -0.041257   5.213333   0.289555   0.011027  -0.000336   0.000475
     3  C    0.289618   0.289555   5.319055  -0.107537   0.019209   0.010222
     4  C    0.400024   0.011027  -0.107537   5.095170   0.371754  -0.020380
     5  C   -0.013765  -0.000336   0.019209   0.371754   5.040088   0.390588
     6  C   -0.136141   0.000475   0.010222  -0.020380   0.390588   4.840651
     7  H    0.011119   0.000005  -0.000461  -0.054636   0.451697  -0.051703
     8  C    0.000415  -0.136584   0.010334   0.000023  -0.000002   0.000011
     9  C    0.011173   0.399678  -0.107873  -0.000138   0.000004   0.000025
    10  C   -0.000337  -0.013168   0.019237   0.000004   0.000000  -0.000003
    11  H    0.000005   0.011104  -0.000463  -0.000000   0.000000   0.000000
    12  N    0.446580  -0.008963  -0.070548  -0.097361  -0.061209   0.443157
    13  N   -0.008838   0.446487  -0.070811  -0.000297  -0.000033   0.000248
    14  B   -0.049681  -0.049440  -0.006641   0.002636  -0.000906  -0.009238
    15  F   -0.003310  -0.003268   0.001534  -0.000052  -0.000004  -0.001782
    16  F   -0.003300  -0.003308   0.001603  -0.000054   0.000009   0.000367
    17  C   -0.074454  -0.074519   0.379310  -0.012879   0.000544  -0.000175
    18  C    0.005421  -0.020800  -0.062821  -0.000051   0.000013   0.000005
    19  C   -0.020839   0.005657  -0.062895   0.000514   0.000113  -0.000028
    20  C   -0.000061   0.001755   0.008988  -0.000035  -0.000002   0.000000
    21  H   -0.000293  -0.001343  -0.010938  -0.000028   0.000001   0.000001
    22  C    0.001794  -0.000105   0.009054  -0.000693  -0.000021  -0.000001
    23  H   -0.001117  -0.000264  -0.011223   0.002146   0.000581  -0.000075
    24  C   -0.000053  -0.000024   0.001336   0.000009   0.000001  -0.000000
    25  H   -0.000000  -0.000002  -0.000283  -0.000000  -0.000000   0.000000
    26  H    0.000003  -0.000002  -0.000283  -0.000017  -0.000001   0.000000
    27  H   -0.000356  -0.032217  -0.018338  -0.000001   0.000000  -0.000000
    28  H    0.000036   0.003098  -0.000486  -0.000000   0.000000   0.000006
    29  H   -0.032163  -0.000367  -0.018405   0.447085  -0.057140   0.010613
    30  H    0.003114   0.000037  -0.000484   0.009787  -0.051243   0.427745
    31  N   -0.000000  -0.000000   0.000011   0.000000   0.000000  -0.000000
    32  H   -0.000000   0.000000   0.000000   0.000000   0.000000  -0.000000
    33  H   -0.000000   0.000000   0.000000   0.000000   0.000000   0.000000
               7          8          9         10         11         12
     1  C    0.011119   0.000415   0.011173  -0.000337   0.000005   0.446580
     2  C    0.000005  -0.136584   0.399678  -0.013168   0.011104  -0.008963
     3  C   -0.000461   0.010334  -0.107873   0.019237  -0.000463  -0.070548
     4  C   -0.054636   0.000023  -0.000138   0.000004  -0.000000  -0.097361
     5  C    0.451697  -0.000002   0.000004   0.000000   0.000000  -0.061209
     6  C   -0.051703   0.000011   0.000025  -0.000003   0.000000   0.443157
     7  H    0.594244   0.000000  -0.000000   0.000000  -0.000000   0.004234
     8  C    0.000000   4.841511  -0.019893   0.389571  -0.051775   0.000297
     9  C   -0.000000  -0.019893   5.095619   0.371152  -0.054539  -0.000281
    10  C    0.000000   0.389571   0.371152   5.040810   0.451684  -0.000039
    11  H   -0.000000  -0.051775  -0.054539   0.451684   0.594236   0.000002
    12  N    0.004234   0.000297  -0.000281  -0.000039   0.000002   6.359597
    13  N    0.000002   0.442869  -0.097514  -0.061137   0.004243  -0.052318
    14  B    0.000131  -0.008683   0.002561  -0.001064   0.000129   0.293916
    15  F    0.000001  -0.000313  -0.000022  -0.000150   0.000000  -0.033879
    16  F    0.000000  -0.001130  -0.000078   0.000112   0.000001  -0.035165
    17  C   -0.000002  -0.000157  -0.013157   0.000562  -0.000002   0.004064
    18  C    0.000000  -0.000030   0.000674   0.000107  -0.000005  -0.000071
    19  C   -0.000005   0.000003  -0.000072   0.000014   0.000000   0.000055
    20  C   -0.000000  -0.000001  -0.000661  -0.000021  -0.000000   0.000001
    21  H    0.000000  -0.000080   0.002207   0.000606   0.000003  -0.000003
    22  C   -0.000000   0.000000  -0.000028  -0.000001  -0.000000   0.000003
    23  H    0.000002   0.000001  -0.000032   0.000001   0.000000  -0.000252
    24  C   -0.000000  -0.000000   0.000004   0.000001  -0.000000  -0.000000
    25  H   -0.000000   0.000000  -0.000012  -0.000000  -0.000000  -0.000000
    26  H   -0.000000   0.000000  -0.000000   0.000000  -0.000000  -0.000000
    27  H   -0.000000   0.010603   0.447181  -0.057084  -0.004644  -0.000013
    28  H   -0.000000   0.427535   0.009792  -0.051157  -0.003366   0.000153
    29  H   -0.004640  -0.000000  -0.000001   0.000000  -0.000000   0.004572
    30  H   -0.003371   0.000007  -0.000000   0.000000  -0.000000  -0.030065
    31  N   -0.000000  -0.000000   0.000000   0.000000  -0.000000   0.000000
    32  H   -0.000000   0.000000  -0.000000  -0.000000   0.000000  -0.000000
    33  H   -0.000000   0.000000  -0.000000  -0.000000  -0.000000  -0.000000
              13         14         15         16         17         18
     1  C   -0.008838  -0.049681  -0.003310  -0.003300  -0.074454   0.005421
     2  C    0.446487  -0.049440  -0.003268  -0.003308  -0.074519  -0.020800
     3  C   -0.070811  -0.006641   0.001534   0.001603   0.379310  -0.062821
     4  C   -0.000297   0.002636  -0.000052  -0.000054  -0.012879  -0.000051
     5  C   -0.000033  -0.000906  -0.000004   0.000009   0.000544   0.000013
     6  C    0.000248  -0.009238  -0.001782   0.000367  -0.000175   0.000005
     7  H    0.000002   0.000131   0.000001   0.000000  -0.000002   0.000000
     8  C    0.442869  -0.008683  -0.000313  -0.001130  -0.000157  -0.000030
     9  C   -0.097514   0.002561  -0.000022  -0.000078  -0.013157   0.000674
    10  C   -0.061137  -0.001064  -0.000150   0.000112   0.000562   0.000107
    11  H    0.004243   0.000129   0.000000   0.000001  -0.000002  -0.000005
    12  N   -0.052318   0.293916  -0.033879  -0.035165   0.004064  -0.000071
    13  N    6.361829   0.293309  -0.035754  -0.033424   0.004002   0.000057
    14  B    0.293309   3.411015   0.461232   0.456329   0.002477   0.000029
    15  F   -0.035754   0.461232   8.887664  -0.025807   0.000004  -0.000000
    16  F   -0.033424   0.456329  -0.025807   8.889897   0.000004  -0.000000
    17  C    0.004002   0.002477   0.000004   0.000004   5.492100   0.248303
    18  C    0.000057   0.000029  -0.000000  -0.000000   0.248303   5.048384
    19  C   -0.000071   0.000011  -0.000000  -0.000000   0.247738   0.058607
    20  C    0.000003  -0.000002  -0.000000   0.000000   0.076114   0.325612
    21  H   -0.000249   0.000014  -0.000000   0.000000  -0.073873   0.459062
    22  C    0.000001  -0.000002   0.000000  -0.000000   0.076354  -0.113617
    23  H   -0.000003   0.000017   0.000000  -0.000000  -0.073946   0.012316
    24  C   -0.000000   0.000000   0.000000   0.000000  -0.162528   0.109095
    25  H   -0.000000  -0.000000   0.000000  -0.000000   0.014843  -0.060543
    26  H   -0.000000  -0.000000  -0.000000   0.000000   0.014893  -0.002160
    27  H    0.004574   0.000241   0.000001   0.000001   0.003912   0.003005
    28  H   -0.029998   0.001030   0.000418   0.000661   0.000004   0.000000
    29  H   -0.000013   0.000244   0.000001   0.000001   0.004115  -0.000450
    30  H    0.000152   0.000902   0.000245   0.000928   0.000004  -0.000000
    31  N    0.000000   0.000000   0.000000   0.000000  -0.000222   0.006409
    32  H   -0.000000  -0.000000   0.000000  -0.000000  -0.000015  -0.000443
    33  H   -0.000000  -0.000000  -0.000000   0.000000  -0.000014   0.000479
              19         20         21         22         23         24
     1  C   -0.020839  -0.000061  -0.000293   0.001794  -0.001117  -0.000053
     2  C    0.005657   0.001755  -0.001343  -0.000105  -0.000264  -0.000024
     3  C   -0.062895   0.008988  -0.010938   0.009054  -0.011223   0.001336
     4  C    0.000514  -0.000035  -0.000028  -0.000693   0.002146   0.000009
     5  C    0.000113  -0.000002   0.000001  -0.000021   0.000581   0.000001
     6  C   -0.000028   0.000000   0.000001  -0.000001  -0.000075  -0.000000
     7  H   -0.000005  -0.000000   0.000000  -0.000000   0.000002  -0.000000
     8  C    0.000003  -0.000001  -0.000080   0.000000   0.000001  -0.000000
     9  C   -0.000072  -0.000661   0.002207  -0.000028  -0.000032   0.000004
    10  C    0.000014  -0.000021   0.000606  -0.000001   0.000001   0.000001
    11  H    0.000000  -0.000000   0.000003  -0.000000   0.000000  -0.000000
    12  N    0.000055   0.000001  -0.000003   0.000003  -0.000252  -0.000000
    13  N   -0.000071   0.000003  -0.000249   0.000001  -0.000003  -0.000000
    14  B    0.000011  -0.000002   0.000014  -0.000002   0.000017   0.000000
    15  F   -0.000000  -0.000000  -0.000000   0.000000   0.000000   0.000000
    16  F   -0.000000   0.000000   0.000000  -0.000000  -0.000000   0.000000
    17  C    0.247738   0.076114  -0.073873   0.076354  -0.073946  -0.162528
    18  C    0.058607   0.325612   0.459062  -0.113617   0.012316   0.109095
    19  C    5.049308  -0.113736   0.012242   0.324917   0.459398   0.109378
    20  C   -0.113736   5.266647  -0.053528   0.022491  -0.001942   0.202956
    21  H    0.012242  -0.053528   0.622165  -0.001922  -0.000136   0.013897
    22  C    0.324917   0.022491  -0.001922   5.267368  -0.053753   0.202774
    23  H    0.459398  -0.001942  -0.000136  -0.053753   0.622270   0.013920
    24  C    0.109378   0.202956   0.013897   0.202774   0.013920   5.115163
    25  H   -0.002170   0.460691  -0.011676   0.013656   0.000013  -0.072953
    26  H   -0.060661   0.013658   0.000013   0.460876  -0.011686  -0.073120
    27  H   -0.000416   0.001228  -0.001924   0.000020  -0.000013  -0.000050
    28  H   -0.000000   0.000000  -0.000001   0.000000  -0.000000  -0.000000
    29  H    0.002897   0.000027  -0.000013   0.001201  -0.001900  -0.000045
    30  H    0.000000   0.000000  -0.000000   0.000000  -0.000001   0.000000
    31  N    0.006404  -0.099678  -0.000081  -0.099536  -0.000080   0.484493
    32  H    0.000501   0.010322   0.000008  -0.023338  -0.000014  -0.003037
    33  H   -0.000423  -0.023380  -0.000014   0.010310   0.000008  -0.003006
              25         26         27         28         29         30
     1  C   -0.000000   0.000003  -0.000356   0.000036  -0.032163   0.003114
     2  C   -0.000002  -0.000002  -0.032217   0.003098  -0.000367   0.000037
     3  C   -0.000283  -0.000283  -0.018338  -0.000486  -0.018405  -0.000484
     4  C   -0.000000  -0.000017  -0.000001  -0.000000   0.447085   0.009787
     5  C   -0.000000  -0.000001   0.000000   0.000000  -0.057140  -0.051243
     6  C    0.000000   0.000000  -0.000000   0.000006   0.010613   0.427745
     7  H   -0.000000  -0.000000  -0.000000  -0.000000  -0.004640  -0.003371
     8  C    0.000000   0.000000   0.010603   0.427535  -0.000000   0.000007
     9  C   -0.000012  -0.000000   0.447181   0.009792  -0.000001  -0.000000
    10  C   -0.000000   0.000000  -0.057084  -0.051157   0.000000   0.000000
    11  H   -0.000000  -0.000000  -0.004644  -0.003366  -0.000000  -0.000000
    12  N   -0.000000  -0.000000  -0.000013   0.000153   0.004572  -0.030065
    13  N   -0.000000  -0.000000   0.004574  -0.029998  -0.000013   0.000152
    14  B   -0.000000  -0.000000   0.000241   0.001030   0.000244   0.000902
    15  F    0.000000  -0.000000   0.000001   0.000418   0.000001   0.000245
    16  F   -0.000000   0.000000   0.000001   0.000661   0.000001   0.000928
    17  C    0.014843   0.014893   0.003912   0.000004   0.004115   0.000004
    18  C   -0.060543  -0.002160   0.003005   0.000000  -0.000450  -0.000000
    19  C   -0.002170  -0.060661  -0.000416  -0.000000   0.002897   0.000000
    20  C    0.460691   0.013658   0.001228   0.000000   0.000027   0.000000
    21  H   -0.011676   0.000013  -0.001924  -0.000001  -0.000013  -0.000000
    22  C    0.013656   0.460876   0.000020   0.000000   0.001201   0.000000
    23  H    0.000013  -0.011686  -0.000013  -0.000000  -0.001900  -0.000001
    24  C   -0.072953  -0.073120  -0.000050  -0.000000  -0.000045   0.000000
    25  H    0.628702  -0.000153   0.000036  -0.000000  -0.000001  -0.000000
    26  H   -0.000153   0.628775  -0.000001  -0.000000   0.000038  -0.000000
    27  H    0.000036  -0.000001   0.588859  -0.000113  -0.000001  -0.000000
    28  H   -0.000000  -0.000000  -0.000113   0.557391  -0.000000  -0.000000
    29  H   -0.000001   0.000038  -0.000001  -0.000000   0.589096  -0.000114
    30  H   -0.000000  -0.000000  -0.000000  -0.000000  -0.000114   0.557600
    31  N   -0.009320  -0.009268  -0.000001   0.000000  -0.000001   0.000000
    32  H   -0.000221   0.004165   0.000000  -0.000000  -0.000000   0.000000
    33  H    0.004199  -0.000222  -0.000000  -0.000000  -0.000000   0.000000
              31         32         33
     1  C   -0.000000  -0.000000  -0.000000
     2  C   -0.000000   0.000000   0.000000
     3  C    0.000011   0.000000   0.000000
     4  C    0.000000   0.000000   0.000000
     5  C    0.000000   0.000000   0.000000
     6  C   -0.000000  -0.000000   0.000000
     7  H   -0.000000  -0.000000  -0.000000
     8  C   -0.000000   0.000000   0.000000
     9  C    0.000000  -0.000000  -0.000000
    10  C    0.000000  -0.000000  -0.000000
    11  H   -0.000000   0.000000  -0.000000
    12  N    0.000000  -0.000000  -0.000000
    13  N    0.000000  -0.000000  -0.000000
    14  B    0.000000  -0.000000  -0.000000
    15  F    0.000000   0.000000  -0.000000
    16  F    0.000000  -0.000000   0.000000
    17  C   -0.000222  -0.000015  -0.000014
    18  C    0.006409  -0.000443   0.000479
    19  C    0.006404   0.000501  -0.000423
    20  C   -0.099678   0.010322  -0.023380
    21  H   -0.000081   0.000008  -0.000014
    22  C   -0.099536  -0.023338   0.010310
    23  H   -0.000080  -0.000014   0.000008
    24  C    0.484493  -0.003037  -0.003006
    25  H   -0.009320  -0.000221   0.004199
    26  H   -0.009268   0.004165  -0.000222
    27  H   -0.000001   0.000000  -0.000000
    28  H    0.000000  -0.000000  -0.000000
    29  H   -0.000001  -0.000000  -0.000000
    30  H    0.000000   0.000000   0.000000
    31  N    6.101875   0.372470   0.372656
    32  H    0.372470   0.497949  -0.026793
    33  H    0.372656  -0.026793   0.497928
 Mulliken charges:
               1
     1  C    0.004054
     2  C    0.003755
     3  C    0.191423
     4  C   -0.046022
     5  C   -0.089939
     6  C    0.095412
     7  H    0.053382
     8  C    0.095468
     9  C   -0.045772
    10  C   -0.089700
    11  H    0.053388
    12  N   -0.166463
    13  N   -0.167317
    14  B    0.199433
    15  F   -0.246760
    16  F   -0.247647
    17  C   -0.083409
    18  C   -0.016583
    19  C   -0.016443
    20  C   -0.097446
    21  H    0.045883
    22  C   -0.097803
    23  H    0.045760
    24  C    0.061789
    25  H    0.035194
    26  H    0.035151
    27  H    0.055511
    28  H    0.084997
    29  H    0.055362
    30  H    0.084757
    31  N   -0.126132
    32  H    0.168446
    33  H    0.168272
 Sum of Mulliken charges =  -0.00000
 Mulliken charges with hydrogens summed into heavy atoms:
               1
     1  C    0.004054
     2  C    0.003755
     3  C    0.191423
     4  C    0.009340
     5  C   -0.036557
     6  C    0.180168
     8  C    0.180465
     9  C    0.009739
    10  C   -0.036312
    12  N   -0.166463
    13  N   -0.167317
    14  B    0.199433
    15  F   -0.246760
    16  F   -0.247647
    17  C   -0.083409
    18  C    0.029299
    19  C    0.029317
    20  C   -0.062252
    22  C   -0.062652
    24  C    0.061789
    31  N    0.210586
 Electronic spatial extent (au):  <R**2>=           6179.2017
 Charge=             -0.0000 electrons
 Dipole moment (field-independent basis, Debye):
    X=            -12.0852    Y=             -0.4539    Z=             -0.6241  Tot=             12.1098
 Quadrupole moment (field-independent basis, Debye-Ang):
   XX=            -92.6031   YY=            -99.6768   ZZ=           -124.0467
   XY=              3.0682   XZ=              2.4281   YZ=             -4.0026
 Traceless Quadrupole moment (field-independent basis, Debye-Ang):
   XX=             12.8391   YY=              5.7654   ZZ=            -18.6045
   XY=              3.0682   XZ=              2.4281   YZ=             -4.0026
 Octapole moment (field-independent basis, Debye-Ang**2):
  XXX=           -339.8706  YYY=             -0.4722  ZZZ=             -0.3347  XYY=             34.9284
  XXY=            -18.7974  XXZ=            -19.3008  XZZ=            -17.3031  YZZ=             -0.2728
  YYZ=             -0.6466  XYZ=             24.8408
 Hexadecapole moment (field-independent basis, Debye-Ang**3):
 XXXX=          -3764.2346 YYYY=          -1909.6720 ZZZZ=           -352.5029 XXXY=            121.5602
 XXXZ=            114.3856 YYYX=              4.7357 YYYZ=             25.9658 ZZZX=              3.9344
 ZZZY=            -23.3145 XXYY=          -1101.8339 XXZZ=           -984.5869 YYZZ=           -450.8460
 XXYZ=            -96.3340 YYXZ=             -0.8676 ZZXY=              0.2456
 N-N= 1.589672572978D+03 E-N=-5.434940789770D+03  KE= 9.573458529873D+02
 Unable to Open any file for archive entry.
 1\1\GINC-X1002C6S0B0N1\SP\RwB97XD TD-FC\def2SVP\C15H12B1F2N3\1008721\1
 0-Oct-2025\0\\# td=(nstates=6) wb97xd scrf=(smd,solvent=ethanol) def2s
 vp\\BDP-NH2_ethanol_wb97xd_wb97xd_wb97xd\\0,1\C,0,0.62395,-1.214325,-0
 .065594\C,0,0.627556,1.216274,0.047662\C,0,-0.091367,0.001912,-0.00522
 3\C,0,0.171021,-2.543476,-0.232271\C,0,1.298817,-3.358185,-0.282863\C,
 0,2.410823,-2.51188,-0.165166\H,0,1.329485,-4.438921,-0.405755\C,0,2.4
 18946,2.509689,0.116571\C,0,0.179491,2.549905,0.190383\C,0,1.310047,3.
 36178,0.220743\H,0,1.344385,4.444846,0.319867\N,0,2.011169,-1.239445,-
 0.037899\N,0,2.014983,1.236228,0.015783\B,0,2.941108,-0.004036,0.02260
 8\F,0,3.704802,-0.024479,1.192598\F,0,3.791607,0.01326,-1.084451\C,0,-
 1.557145,0.002497,-0.000887\C,0,-2.289738,0.851612,-0.853236\C,0,-2.28
 2393,-0.848666,0.855729\C,0,-3.673572,0.846196,-0.85996\H,0,-1.760286,
 1.498705,-1.55594\C,0,-3.666101,-0.84315,0.874742\H,0,-1.746618,-1.499
 864,1.549792\C,0,-4.398716,0.003473,0.012462\H,0,-4.217473,1.495186,-1
 .550892\H,0,-4.203838,-1.494782,1.567976\H,0,-0.857514,2.866863,0.2775
 16\H,0,3.478985,2.762656,0.125084\H,0,-0.867447,-2.854294,-0.324569\H,
 0,3.469973,-2.768143,-0.179898\N,0,-5.757255,0.028398,0.04283\H,0,-6.2
 54933,-0.709333,0.525504\H,0,-6.259937,0.500028,-0.6986\\Version=ES64L
 -G16RevC.01\State=1-A\HF=-966.8219379\RMSD=9.975e-09\PG=C01 [X(C15H12B
 1F2N3)]\\@
 The archive entry for this job was punched.


 IT'S WHAT YOU LEARN AFTER YOU KNOW IT ALL
 THAT COUNTS.
 Job cpu time:       0 days  1 hours 21 minutes 52.7 seconds.
 Elapsed time:       0 days  0 hours  2 minutes 38.2 seconds.
 File lengths (MBytes):  RWF=   1042 Int=      0 D2E=      0 Chk=     36 Scr=      1
 Normal termination of Gaussian 16 at Fri Oct 10 15:24:20 2025.
