 Entering Gaussian System, Link 0=g16
 Initial command:
 /home/users/sutd/1008721/g16/l1.exe "/home/users/sutd/1008721/scratch/g16/scratch/Gau-1167086.inp" -scrdir="/home/users/sutd/1008721/scratch/g16/scratch/"
 Entering Link 1 = /home/users/sutd/1008721/g16/l1.exe PID=   1167087.
  
 Copyright (c) 1988-2019, Gaussian, Inc.  All Rights Reserved.
  
 This is part of the Gaussian(R) 16 program.  It is based on
 the Gaussian(R) 09 system (copyright 2009, Gaussian, Inc.),
 the Gaussian(R) 03 system (copyright 2003, Gaussian, Inc.),
 the Gaussian(R) 98 system (copyright 1998, Gaussian, Inc.),
 the Gaussian(R) 94 system (copyright 1995, Gaussian, Inc.),
 the Gaussian 92(TM) system (copyright 1992, Gaussian, Inc.),
 the Gaussian 90(TM) system (copyright 1990, Gaussian, Inc.),
 the Gaussian 88(TM) system (copyright 1988, Gaussian, Inc.),
 the Gaussian 86(TM) system (copyright 1986, Carnegie Mellon
 University), and the Gaussian 82(TM) system (copyright 1983,
 Carnegie Mellon University). Gaussian is a federally registered
 trademark of Gaussian, Inc.
  
 This software contains proprietary and confidential information,
 including trade secrets, belonging to Gaussian, Inc.
  
 This software is provided under written license and may be
 used, copied, transmitted, or stored only in accord with that
 written license.
  
 The following legend is applicable only to US Government
 contracts under FAR:
  
                    RESTRICTED RIGHTS LEGEND
  
 Use, reproduction and disclosure by the US Government is
 subject to restrictions as set forth in subparagraphs (a)
 and (c) of the Commercial Computer Software - Restricted
 Rights clause in FAR 52.227-19.
  
 Gaussian, Inc.
 340 Quinnipiac St., Bldg. 40, Wallingford CT 06492
  
  
 ---------------------------------------------------------------
 Warning -- This program may not be used in any manner that
 competes with the business of Gaussian, Inc. or will provide
 assistance to any competitor of Gaussian, Inc.  The licensee
 of this program is prohibited from giving any competitor of
 Gaussian, Inc. access to this program.  By using this program,
 the user acknowledges that Gaussian, Inc. is engaged in the
 business of creating and licensing software in the field of
 computational chemistry and represents and warrants to the
 licensee that it is not a competitor of Gaussian, Inc. and that
 it will not use this program in any manner prohibited above.
 ---------------------------------------------------------------
  

 Cite this work as:
 Gaussian 16, Revision C.01,
 M. J. Frisch, G. W. Trucks, H. B. Schlegel, G. E. Scuseria, 
 M. A. Robb, J. R. Cheeseman, G. Scalmani, V. Barone, 
 G. A. Petersson, H. Nakatsuji, X. Li, M. Caricato, A. V. Marenich, 
 J. Bloino, B. G. Janesko, R. Gomperts, B. Mennucci, H. P. Hratchian, 
 J. V. Ortiz, A. F. Izmaylov, J. L. Sonnenberg, D. Williams-Young, 
 F. Ding, F. Lipparini, F. Egidi, J. Goings, B. Peng, A. Petrone, 
 T. Henderson, D. Ranasinghe, V. G. Zakrzewski, J. Gao, N. Rega, 
 G. Zheng, W. Liang, M. Hada, M. Ehara, K. Toyota, R. Fukuda, 
 J. Hasegawa, M. Ishida, T. Nakajima, Y. Honda, O. Kitao, H. Nakai, 
 T. Vreven, K. Throssell, J. A. Montgomery, Jr., J. E. Peralta, 
 F. Ogliaro, M. J. Bearpark, J. J. Heyd, E. N. Brothers, K. N. Kudin, 
 V. N. Staroverov, T. A. Keith, R. Kobayashi, J. Normand, 
 K. Raghavachari, A. P. Rendell, J. C. Burant, S. S. Iyengar, 
 J. Tomasi, M. Cossi, J. M. Millam, M. Klene, C. Adamo, R. Cammi, 
 J. W. Ochterski, R. L. Martin, K. Morokuma, O. Farkas, 
 J. B. Foresman, and D. J. Fox, Gaussian, Inc., Wallingford CT, 2019.
 
 ******************************************
 Gaussian 16:  ES64L-G16RevC.01  3-Jul-2019
                10-Oct-2025 
 ******************************************
 %nprocshared=32
 Will use up to   32 processors via shared memory.
 %mem=64GB
 %chk=03BDP-NH2_ethanol_wb97xd_wb97xd_wb97xd.chk
 ----------------------------------------------------------------------
 # td=(nstates=3,root=2) wb97xd scrf=(smd,solvent=ethanol,correctedlr) 
 def2svp
 ----------------------------------------------------------------------
 1/30=1,38=1,172=1/1;
 2/12=2,17=6,18=5,40=1/2;
 3/5=43,7=101,11=9,25=1,30=1,70=32201,71=1,72=4,74=-58/1,2,3,8;
 4//1;
 5/5=2,38=5,53=4/2;
 8/6=1,10=1,107=2,108=3/1;
 9/8=2,15=1,41=3,42=1,70=2,73=21/14;
 10/5=4,13=10,28=2,74=10/2;
 6/7=2,8=2,9=2,10=2,22=-1/1;
 99/5=1,9=1/99;
 ------------------------------------
 BDP-NH2_ethanol_wb97xd_wb97xd_wb97xd
 ------------------------------------
 Symbolic Z-matrix:
 Charge =  0 Multiplicity = 1
 C                     0.62395  -1.21433  -0.06559 
 C                     0.62756   1.21627   0.04766 
 C                    -0.09137   0.00191  -0.00522 
 C                     0.17102  -2.54348  -0.23227 
 C                     1.29882  -3.35819  -0.28286 
 C                     2.41082  -2.51188  -0.16517 
 H                     1.32949  -4.43892  -0.40576 
 C                     2.41895   2.50969   0.11657 
 C                     0.17949   2.54991   0.19038 
 C                     1.31005   3.36178   0.22074 
 H                     1.34439   4.44485   0.31987 
 N                     2.01117  -1.23945  -0.0379 
 N                     2.01498   1.23623   0.01578 
 B                     2.94111  -0.00404   0.02261 
 F                     3.7048   -0.02448   1.1926 
 F                     3.79161   0.01326  -1.08445 
 C                    -1.55715   0.0025   -0.00089 
 C                    -2.28974   0.85161  -0.85324 
 C                    -2.28239  -0.84867   0.85573 
 C                    -3.67357   0.8462   -0.85996 
 H                    -1.76029   1.49871  -1.55594 
 C                    -3.6661   -0.84315   0.87474 
 H                    -1.74662  -1.49986   1.54979 
 C                    -4.39872   0.00347   0.01246 
 H                    -4.21747   1.49519  -1.55089 
 H                    -4.20384  -1.49478   1.56798 
 H                    -0.85751   2.86686   0.27752 
 H                     3.47899   2.76266   0.12508 
 H                    -0.86745  -2.85429  -0.32457 
 H                     3.46997  -2.76814  -0.1799 
 N                    -5.75726   0.0284    0.04283 
 H                    -6.25493  -0.70933   0.5255 
 H                    -6.25994   0.50003  -0.6986 
 
                          Input orientation:                          
 ---------------------------------------------------------------------
 Center     Atomic      Atomic             Coordinates (Angstroms)
 Number     Number       Type             X           Y           Z
 ---------------------------------------------------------------------
      1          6           0        0.623950   -1.214325   -0.065594
      2          6           0        0.627556    1.216274    0.047662
      3          6           0       -0.091367    0.001912   -0.005223
      4          6           0        0.171021   -2.543476   -0.232271
      5          6           0        1.298817   -3.358185   -0.282863
      6          6           0        2.410823   -2.511880   -0.165166
      7          1           0        1.329485   -4.438921   -0.405755
      8          6           0        2.418946    2.509689    0.116571
      9          6           0        0.179491    2.549905    0.190383
     10          6           0        1.310047    3.361780    0.220743
     11          1           0        1.344385    4.444846    0.319867
     12          7           0        2.011169   -1.239445   -0.037899
     13          7           0        2.014983    1.236228    0.015783
     14          5           0        2.941108   -0.004036    0.022608
     15          9           0        3.704802   -0.024479    1.192598
     16          9           0        3.791607    0.013260   -1.084451
     17          6           0       -1.557145    0.002497   -0.000887
     18          6           0       -2.289738    0.851612   -0.853236
     19          6           0       -2.282393   -0.848666    0.855729
     20          6           0       -3.673572    0.846196   -0.859960
     21          1           0       -1.760286    1.498705   -1.555940
     22          6           0       -3.666101   -0.843150    0.874742
     23          1           0       -1.746618   -1.499864    1.549792
     24          6           0       -4.398716    0.003473    0.012462
     25          1           0       -4.217473    1.495186   -1.550892
     26          1           0       -4.203838   -1.494782    1.567976
     27          1           0       -0.857514    2.866863    0.277516
     28          1           0        3.478985    2.762656    0.125084
     29          1           0       -0.867447   -2.854294   -0.324569
     30          1           0        3.469973   -2.768143   -0.179898
     31          7           0       -5.757255    0.028398    0.042830
     32          1           0       -6.254933   -0.709333    0.525504
     33          1           0       -6.259937    0.500028   -0.698600
 ---------------------------------------------------------------------
                    Distance matrix (angstroms):
                    1          2          3          4          5
     1  C    0.000000
     2  C    2.433239   0.000000
     3  C    1.412287   1.412205   0.000000
     4  C    1.414061   3.797698   2.568929   0.000000
     5  C    2.258049   4.635247   3.646909   1.392205   0.000000
     6  C    2.210538   4.138172   3.550449   2.241030   1.402370
     7  H    3.318359   5.716601   4.679770   2.228194   1.088133
     8  C    4.138052   2.210599   3.550416   5.541600   5.987168
     9  C    3.799012   1.414109   2.569804   5.110894   6.031781
    10  C    4.636103   2.258085   3.647429   6.031140   6.738818
    11  H    5.717851   3.318376   4.680463   7.107622   7.826407
    12  N    1.387723   2.819975   2.441863   2.263719   2.248669
    13  N    2.819008   1.387937   2.441452   4.212824   4.659476
    14  B    2.615684   2.615780   3.032609   3.766577   3.747099
    15  F    3.534180   3.509956   3.980750   4.567626   4.367991
    16  F    3.546701   3.569333   4.030180   4.513508   4.268862
    17  C    2.498403   2.499706   1.465785   3.085786   4.419300
    18  C    3.657602   3.074931   2.504786   4.238815   5.561065
    19  C    3.070728   3.658518   2.503061   3.174172   4.518755
    20  C    4.831714   4.411399   3.778304   5.163794   6.537164
    21  H    3.907204   2.890172   2.725877   4.671325   5.879474
    22  C    4.407555   4.833299   3.777194   4.340517   5.684704
    23  H    2.882811   3.907749   2.722730   2.818193   4.010817
    24  C    5.168781   5.170642   4.307386   5.237303   6.621921
    25  H    5.743426   5.109547   4.652280   6.108063   7.456042
    26  H    5.104385   5.744871   4.650534   4.845621   6.097302
    27  H    4.355291   2.232198   2.979071   5.530781   6.611733
    28  H    4.899384   3.244679   4.515097   6.263016   6.510319
    29  H    2.231778   4.352369   2.976944   1.087907   2.224488
    30  H    3.244574   4.899663   4.515181   3.307008   2.252259
    31  N    6.501992   6.494373   5.666154   6.467973   7.833465
    32  H    6.922676   7.162747   6.227125   6.725414   8.045434
    33  H    7.122331   6.964731   6.227371   7.130049   8.496670
                    6          7          8          9         10
     6  C    0.000000
     7  H    2.222760   0.000000
     8  C    5.029473   7.052867   0.000000
     9  C    5.543187   7.107852   2.241032   0.000000
    10  C    5.988365   7.825843   1.402344   1.392200   0.000000
    11  H    7.054685   8.913364   2.222801   2.228126   1.088134
    12  N    1.339780   3.291908   3.774407   4.215013   4.661517
    13  N    3.773294   5.731921   1.339794   2.263904   2.248758
    14  B    2.570164   4.738041   2.569104   3.765274   3.745442
    15  F    3.115296   5.261574   3.038629   4.478806   4.259824
    16  F    3.021255   5.132698   3.091732   4.594252   4.367409
    17  C    4.700409   5.312508   4.702032   3.088977   4.422069
    18  C    5.820807   6.425633   5.085415   3.173394   4.518056
    19  C    5.082793   5.246612   5.824731   4.248981   5.571058
    20  C    6.984216   7.291731   6.390587   4.341882   5.686171
    21  H    5.951235   6.791540   4.613606   2.813788   4.006819
    22  C    6.387102   6.286901   6.988859   5.173949   6.547610
    23  H    4.609726   4.682374   5.956724   4.685992   5.894502
    24  C    7.261431   7.260996   7.264466   5.241751   6.626581
    25  H    7.868362   8.203274   6.917493   4.845386   6.097240
    26  H    6.913177   6.571243   7.874239   6.121342   7.470218
    27  H    6.309427   7.656651   3.299798   1.087857   2.224070
    28  H    5.389429   7.534245   1.089838   3.306991   2.252197
    29  H    3.299956   2.710008   6.306132   5.528709   6.608965
    30  H    1.089810   2.724738   5.389625   6.264664   6.511663
    31  N    8.556505   8.389282   8.544736   6.451722   7.815999
    32  H    8.878149   8.502968   9.260967   7.220578   8.596264
    33  H    9.194467   9.059708   8.945739   6.816049   8.144905
                   11         12         13         14         15
    11  H    0.000000
    12  N    5.734436   0.000000
    13  N    3.292020   2.476258   0.000000
    14  B    4.736078   1.547476   1.547905   0.000000
    15  F    5.129142   2.420466   2.414490   1.397327   0.000000
    16  F    5.253566   2.415471   2.421272   1.396147   2.279015
    17  C    5.315658   3.778446   3.779215   4.498319   5.395667
    18  C    5.243506   4.851298   4.408372   5.372242   6.394332
    19  C    6.439094   4.402948   4.849715   5.356534   6.053038
    20  C    6.286666   6.110807   5.768770   6.727244   7.707884
    21  H    4.673048   4.901611   4.097788   5.182002   6.304105
    22  C    7.305871   5.763797   6.110347   6.714570   7.423036
    23  H    6.812238   4.087731   4.897859   5.152142   5.658827
    24  C    7.266602   6.529472   6.531097   7.339835   8.189048
    25  H    6.567686   6.968740   6.431566   7.481233   8.520479
    26  H    8.223122   6.424200   6.967170   7.460613   8.052905
    27  H    2.709277   5.019023   3.313414   4.768288   5.478317
    28  H    2.724742   4.265895   2.117836   2.820354   2.993109
    29  H    7.654080   3.313057   5.015637   4.769653   5.587048
    30  H    7.536252   2.117827   4.265006   2.821523   3.076781
    31  N    8.367500   7.871617   7.865575   8.698447   9.531804
    32  H    9.184633   8.302222   8.510966   9.236748  10.005517
    33  H    8.626968   8.477823   8.338263   9.243022  10.156169
                   16         17         18         19         20
    16  F    0.000000
    17  C    5.457415   0.000000
    18  C    6.143212   1.408612   0.000000
    19  C    6.434337   1.408636   2.410718   0.000000
    20  C    7.514857   2.434974   1.383861   2.784156   0.000000
    21  H    5.766486   2.167509   1.092173   3.405715   2.137947
    22  C    7.758175   2.435065   2.784331   1.383850   2.421391
    23  H    6.316701   2.167393   3.405725   1.092171   3.876087
    24  C    8.263456   2.841603   2.432398   2.432296   1.413201
    25  H    8.158372   3.421693   2.148738   3.876855   1.092888
    26  H    8.557844   3.421719   3.877062   2.148654   3.414123
    27  H    5.622484   2.961686   2.718658   4.021165   3.647894
    28  H    3.019915   5.744297   6.155271   6.838784   7.470087
    29  H    5.523321   2.956638   4.004515   2.723549   4.674891
    30  H    2.942425   5.742857   6.835955   6.151961   8.034685
    31  N    9.615184   4.200417   3.674818   3.674876   2.413619
    32  H   10.200346   4.780481   4.478866   3.988676   3.317018
    33  H   10.070718   4.780229   3.988735   4.478367   2.614413
                   21         22         23         24         25
    21  H    0.000000
    22  C    3.876162   0.000000
    23  H    4.317079   2.138079   0.000000
    24  C    3.414223   1.413160   3.414239   0.000000
    25  H    2.457195   3.414019   4.968872   2.168440   0.000000
    26  H    4.968980   1.092867   2.457293   2.168495   4.320582
    27  H    2.459352   4.691379   4.634382   4.561729   4.063730
    28  H    5.645651   8.038413   6.892445   8.347691   7.978148
    29  H    4.611078   3.649043   2.473995   4.555248   5.625346
    30  H    6.888766   7.466017   5.640317   8.344766   8.896765
    31  N    4.549025   2.413421   4.548816   1.359107   2.657507
    32  H    5.423070   2.615707   4.690310   2.053496   3.650009
    33  H    4.688203   3.317758   5.424471   2.053368   2.426603
                   26         27         28         29         30
    26  H    0.000000
    27  H    5.646868   0.000000
    28  H    8.901319   4.340428   0.000000
    29  H    4.069583   5.752760   7.116445   0.000000
    30  H    7.972696   7.119667   5.539209   4.340687   0.000000
    31  N    2.656925   5.667400   9.632812   5.688156   9.644272
    32  H    2.431187   6.479414  10.342350   5.860758   9.965445
    33  H    3.652968   5.978368  10.032175   6.361629  10.277215
                   31         32         33
    31  N    0.000000
    32  H    1.012376   0.000000
    33  H    1.012345   1.720758   0.000000
 Stoichiometry    C15H12BF2N3
 Framework group  C1[X(C15H12BF2N3)]
 Deg. of freedom    93
 Full point group                 C1      NOp   1
 Largest Abelian subgroup         C1      NOp   1
 Largest concise Abelian subgroup C1      NOp   1
                         Standard orientation:                         
 ---------------------------------------------------------------------
 Center     Atomic      Atomic             Coordinates (Angstroms)
 Number     Number       Type             X           Y           Z
 ---------------------------------------------------------------------
      1          6           0        0.623950   -1.214325   -0.065594
      2          6           0        0.627556    1.216274    0.047662
      3          6           0       -0.091367    0.001912   -0.005223
      4          6           0        0.171021   -2.543476   -0.232271
      5          6           0        1.298817   -3.358185   -0.282863
      6          6           0        2.410823   -2.511880   -0.165166
      7          1           0        1.329485   -4.438921   -0.405755
      8          6           0        2.418946    2.509689    0.116571
      9          6           0        0.179491    2.549905    0.190383
     10          6           0        1.310047    3.361780    0.220743
     11          1           0        1.344385    4.444846    0.319867
     12          7           0        2.011169   -1.239445   -0.037899
     13          7           0        2.014983    1.236228    0.015783
     14          5           0        2.941108   -0.004036    0.022608
     15          9           0        3.704802   -0.024479    1.192598
     16          9           0        3.791607    0.013260   -1.084451
     17          6           0       -1.557145    0.002497   -0.000887
     18          6           0       -2.289738    0.851612   -0.853236
     19          6           0       -2.282393   -0.848666    0.855729
     20          6           0       -3.673572    0.846196   -0.859960
     21          1           0       -1.760286    1.498705   -1.555940
     22          6           0       -3.666101   -0.843150    0.874742
     23          1           0       -1.746618   -1.499864    1.549792
     24          6           0       -4.398716    0.003473    0.012462
     25          1           0       -4.217473    1.495186   -1.550892
     26          1           0       -4.203838   -1.494782    1.567976
     27          1           0       -0.857514    2.866863    0.277516
     28          1           0        3.478985    2.762656    0.125084
     29          1           0       -0.867447   -2.854294   -0.324569
     30          1           0        3.469973   -2.768143   -0.179898
     31          7           0       -5.757255    0.028398    0.042830
     32          1           0       -6.254933   -0.709333    0.525504
     33          1           0       -6.259937    0.500028   -0.698600
 ---------------------------------------------------------------------
 Rotational constants (GHZ):           0.5799245           0.2146276           0.1669170
 Standard basis: def2SVP (5D, 7F)
 There are   375 symmetry adapted cartesian basis functions of A   symmetry.
 There are   354 symmetry adapted basis functions of A   symmetry.
   354 basis functions,   609 primitive gaussians,   375 cartesian basis functions
    73 alpha electrons       73 beta electrons
       nuclear repulsion energy      1589.6986751008 Hartrees.
 NAtoms=   33 NActive=   33 NUniq=   33 SFac= 1.00D+00 NAtFMM=   60 NAOKFM=F Big=F
 Integral buffers will be    131072 words long.
 Raffenetti 1 integral format.
 Two-electron integral symmetry is turned on.
 Nuclear repulsion after empirical dispersion term =     1589.6733796713 Hartrees.
 ------------------------------------------------------------------------------
 Polarizable Continuum Model (PCM)
 =================================
 Model                : PCM.
 Atomic radii         : SMD-Coulomb.
 Polarization charges : Total charges.
 Charge compensation  : None.
 Solution method      : On-the-fly selection.
 Cavity type          : VdW (van der Waals Surface) (Alpha=1.000).
 Cavity algorithm     : GePol (No added spheres)
                        Default sphere list used, NSphG=   33.
                        Lebedev-Laikov grids with approx.  5.0 points / Ang**2.
                        Smoothing algorithm: York/Karplus (Gamma=1.0000).
                        Polarization charges: spherical gaussians, with
                                              point-specific exponents (IZeta= 3).
                        Self-potential: point-specific (ISelfS= 7).
                        Self-field    : sphere-specific E.n sum rule (ISelfD= 2).
 1st derivatives      : Analytical E(r).r(x)/FMM algorithm (CHGder, D1EAlg=3).
                        Cavity 1st derivative terms included.
 Solvent              : Ethanol, Eps=  24.852000 Eps(inf)=   1.852593
 ------------------------------------------------------------------------------
 ------------------------------------------------------------------------------
 Atomic radii for non-electrostatic terms: SMD-CDS.
 ------------------------------------------------------------------------------
 Nuclear repulsion after PCM non-electrostatic terms =     1589.6725729784 Hartrees.
 One-electron integrals computed using PRISM.
   1 Symmetry operations used in ECPInt.
 ECPInt:  NShTT=   13203 NPrTT=   49137 LenC2=   11970 LenP2D=   31023.
 LDataN:  DoStor=T MaxTD1= 4 Len=   56
 NBasis=   354 RedAO= T EigKep=  2.58D-04  NBF=   354
 NBsUse=   354 1.00D-06 EigRej= -1.00D+00 NBFU=   354
 ExpMin= 8.36D-02 ExpMax= 2.89D+03 ExpMxC= 4.35D+02 IAcc=3 IRadAn=         5 AccDes= 0.00D+00
 Harris functional with IExCor= 4639 and IRadAn=       5 diagonalized for initial guess.
 HarFok:  IExCor= 4639 AccDes= 0.00D+00 IRadAn=         5 IDoV= 1 UseB2=F ITyADJ=14
 ICtDFT=  3500011 ScaDFX=  1.000000  1.000000  1.000000  1.000000
 FoFCou: FMM=F IPFlag=           0 FMFlag=      100000 FMFlg1=           0
         NFxFlg=           0 DoJE=T BraDBF=F KetDBF=T FulRan=T
         wScrn=  0.000000 ICntrl=       500 IOpCl=  0 I1Cent=   200000004 NGrid=           0
         NMat0=    1 NMatS0=      1 NMatT0=    0 NMatD0=    1 NMtDS0=    0 NMtDT0=    0
 Petite list used in FoFCou.
 Requested convergence on RMS density matrix=1.00D-08 within 128 cycles.
 Requested convergence on MAX density matrix=1.00D-06.
 Requested convergence on             energy=1.00D-06.
 No special actions if energy rises.
 Inv3:  Mode=1 IEnd=    19722288.
 Iteration    1 A*A^-1 deviation from unit magnitude is 5.22D-15 for   2545.
 Iteration    1 A*A^-1 deviation from orthogonality  is 2.01D-15 for   2562    586.
 Iteration    1 A^-1*A deviation from unit magnitude is 5.22D-15 for   2545.
 Iteration    1 A^-1*A deviation from orthogonality  is 1.44D-15 for   1585   1024.
 Error on total polarization charges =  0.03805
 SCF Done:  E(RwB97XD) =  -966.821937908     A.U. after   14 cycles
            NFock= 14  Conv=0.10D-07     -V/T= 2.0099
 SMD-CDS (non-electrostatic) energy       (kcal/mol) =      -0.51
 (included in total energy above)
 DoSCS=F DFT=T ScalE2(SS,OS)=  1.000000  1.000000
 ExpMin= 8.36D-02 ExpMax= 2.89D+03 ExpMxC= 4.35D+02 IAcc=3 IRadAn=         5 AccDes= 0.00D+00
 HarFok:  IExCor=  205 AccDes= 0.00D+00 IRadAn=         5 IDoV=-2 UseB2=F ITyADJ=14
 ICtDFT= 12500011 ScaDFX=  1.000000  1.000000  1.000000  1.000000
 GSVD:  LWork=        -609 too small for GESVD, short by        2520 words or        2520 for optimal perf.
 Range of M.O.s used for correlation:    22   354
 NBasis=   354 NAE=    73 NBE=    73 NFC=    21 NFV=     0
 NROrb=    333 NOA=    52 NOB=    52 NVA=   281 NVB=   281

 **** Warning!!: The largest alpha MO coefficient is  0.15362167D+02

 NEqPCM:  Using non-equilibrium solvation (IEInf=1, Eps=  24.8520, EpsInf=   1.8526)
 Inv3:  Mode=1 IEnd=    19722288.
 Iteration    1 A*A^-1 deviation from unit magnitude is 5.77D-15 for   2545.
 Iteration    1 A*A^-1 deviation from orthogonality  is 1.91D-15 for    995    238.
 Iteration    1 A^-1*A deviation from unit magnitude is 6.00D-15 for   2545.
 Iteration    1 A^-1*A deviation from orthogonality  is 1.77D-15 for   2043    503.
 Orbital symmetries:
       Occupied  (A) (A) (A) (A) (A) (A) (A) (A) (A) (A) (A) (A)
                 (A) (A) (A) (A) (A) (A) (A) (A) (A) (A) (A) (A)
                 (A) (A) (A) (A) (A) (A) (A) (A) (A) (A) (A) (A)
                 (A) (A) (A) (A) (A) (A) (A) (A) (A) (A) (A) (A)
                 (A) (A) (A) (A) (A) (A) (A) (A) (A) (A) (A) (A)
                 (A) (A) (A) (A) (A) (A) (A) (A) (A) (A) (A) (A)
                 (A)
       Virtual   (A) (A) (A) (A) (A) (A) (A) (A) (A) (A) (A) (A)
                 (A) (A) (A) (A) (A) (A) (A) (A) (A) (A) (A) (A)
                 (A) (A) (A) (A) (A) (A) (A) (A) (A) (A) (A) (A)
                 (A) (A) (A) (A) (A) (A) (A) (A) (A) (A) (A) (A)
                 (A) (A) (A) (A) (A) (A) (A) (A) (A) (A) (A) (A)
                 (A) (A) (A) (A) (A) (A) (A) (A) (A) (A) (A) (A)
                 (A) (A) (A) (A) (A) (A) (A) (A) (A) (A) (A) (A)
                 (A) (A) (A) (A) (A) (A) (A) (A) (A) (A) (A) (A)
                 (A) (A) (A) (A) (A) (A) (A) (A) (A) (A) (A) (A)
                 (A) (A) (A) (A) (A) (A) (A) (A) (A) (A) (A) (A)
                 (A) (A) (A) (A) (A) (A) (A) (A) (A) (A) (A) (A)
                 (A) (A) (A) (A) (A) (A) (A) (A) (A) (A) (A) (A)
                 (A) (A) (A) (A) (A) (A) (A) (A) (A) (A) (A) (A)
                 (A) (A) (A) (A) (A) (A) (A) (A) (A) (A) (A) (A)
                 (A) (A) (A) (A) (A) (A) (A) (A) (A) (A) (A) (A)
                 (A) (A) (A) (A) (A) (A) (A) (A) (A) (A) (A) (A)
                 (A) (A) (A) (A) (A) (A) (A) (A) (A) (A) (A) (A)
                 (A) (A) (A) (A) (A) (A) (A) (A) (A) (A) (A) (A)
                 (A) (A) (A) (A) (A) (A) (A) (A) (A) (A) (A) (A)
                 (A) (A) (A) (A) (A) (A) (A) (A) (A) (A) (A) (A)
                 (A) (A) (A) (A) (A) (A) (A) (A) (A) (A) (A) (A)
                 (A) (A) (A) (A) (A) (A) (A) (A) (A) (A) (A) (A)
                 (A) (A) (A) (A) (A) (A) (A) (A) (A) (A) (A) (A)
                 (A) (A) (A) (A) (A)
    12 initial guesses have been made.
 Convergence on wavefunction:    0.000001000000000
 Iteration     1 Dimension    12 NMult     0 NNew     12
 CISAX will form    12 AO SS matrices at one time.
 Iteration     2 Dimension    18 NMult    12 NNew      6
 Iteration     3 Dimension    24 NMult    18 NNew      6
 Iteration     4 Dimension    30 NMult    24 NNew      6
 Iteration     5 Dimension    36 NMult    30 NNew      6
 Iteration     6 Dimension    42 NMult    36 NNew      6
 Iteration     7 Dimension    48 NMult    42 NNew      6
 Iteration     8 Dimension    54 NMult    48 NNew      6
 Iteration     9 Dimension    60 NMult    54 NNew      6
 Iteration    10 Dimension    66 NMult    60 NNew      6
 Iteration    11 Dimension    70 NMult    66 NNew      4
 Iteration    12 Dimension    72 NMult    70 NNew      2
 PCM Corrected Linear-Response:
 The state of interest is root number   2
 Excitation energy =    3.2250 eV, Total energy =  -966.703419875    
 Recompute the excitation energies using the linear response reaction field.
 Convergence on wavefunction:    0.000001000000000
 Iteration     1 Dimension     3 NMult     0 NNew      3
 Iteration     2 Dimension     9 NMult     3 NNew      6
 Iteration     3 Dimension    15 NMult     9 NNew      6
 Iteration     4 Dimension    21 NMult    15 NNew      6
 Iteration     5 Dimension    27 NMult    21 NNew      6
 Iteration     6 Dimension    33 NMult    27 NNew      6
 Iteration     7 Dimension    39 NMult    33 NNew      6
 Iteration     8 Dimension    45 NMult    39 NNew      6
 Iteration     9 Dimension    51 NMult    45 NNew      6
 Iteration    10 Dimension    57 NMult    51 NNew      6
 Iteration    11 Dimension    63 NMult    57 NNew      6
 Iteration    12 Dimension    67 NMult    63 NNew      4
 Iteration    13 Dimension    69 NMult    67 NNew      2
 Iteration    14 Dimension    71 NMult    69 NNew      2
 ***********************************************************************
 Excited states from <AA,BB:AA,BB> singles matrix:
 ***********************************************************************
 
 Ground to excited state transition densities written to RWF  633
 Ground to excited state transition electric dipole moments (Au):
       state          X           Y           Z        Dip. S.      Osc.
         1         2.3988     -0.0065     -0.0177      5.7544      0.4265
         2         0.0067      2.6959      0.2071      7.3107      0.5480
         3        -0.0041     -0.7967     -0.1090      0.6467      0.0643
 Ground to excited state transition velocity dipole moments (Au):
       state          X           Y           Z        Dip. S.      Osc.
         1        -0.2533      0.0006      0.0017      0.0642      0.3848
         2        -0.0007     -0.2944     -0.0230      0.0872      0.5169
         3         0.0006      0.1204      0.0174      0.0148      0.0662
 Ground to excited state transition magnetic dipole moments (Au):
       state          X           Y           Z
         1         0.0531      0.0048     -0.0038
         2        -0.0031     -0.0530      0.5382
         3         0.0013     -0.1486      1.3072
 Ground to excited state transition velocity quadrupole moments (Au):
       state          XX          YY          ZZ          XY          XZ          YZ
         1         1.4071     -0.6458      0.0290     -0.0066     -0.0049     -0.0988
         2        -0.0025     -0.0009      0.0020     -0.9645     -0.0330      0.0147
         3        -0.0030      0.0040     -0.0009     -0.0100     -0.0263     -0.0033
 <0|del|b> * <b|rxdel|0> + <0|del|b> * <b|delr+rdel|0>
 Rotatory Strengths (R) in cgs (10**-40 erg-esu-cm/Gauss)
       state          XX          YY          ZZ    R(velocity)    E-M Angle
         1        -0.0378     36.8755   -122.3522    -28.5048      173.59
         2        49.3133   -108.7273     79.5924      6.7261       88.85
         3        18.4930     54.2399    -49.9364      7.5988       88.28
 1/2[<0|r|b>*<b|rxdel|0> + (<0|rxdel|b>*<b|r|0>)*]
 Rotatory Strengths (R) in cgs (10**-40 erg-esu-cm/Gauss)
       state          XX          YY          ZZ     R(length)
         1       -90.0098      0.0221     -0.0471    -30.0116
         2         0.0148    100.9485    -78.8391      7.3748
         3         0.0037    -83.7171    100.7896      5.6921
  1/2[<0|del|b>*<b|r|0> + (<0|r|b>*<b|del|0>)*] (Au)
       state          X           Y           Z        Dip. S.   Osc.(frdel)
         1        -0.6077     -0.0000     -0.0000      0.6077      0.4051
         2        -0.0000     -0.7936     -0.0048      0.7984      0.5323
         3        -0.0000     -0.0959     -0.0019      0.0978      0.0652

 Excitation energies and oscillator strengths:
 
 Excited State   1:      Singlet-A      3.0255 eV  409.80 nm  f=0.4265  <S**2>=0.000
      73 -> 74         0.68941
 
 Excited State   2:      Singlet-A      3.0598 eV  405.20 nm  f=0.5480  <S**2>=0.000
      72 -> 74         0.69737
 This state for optimization and/or second-order correction.
 Total Energy, E(TD-HF/TD-DFT) =  -966.709491568    
 Copying the excited state density for this state as the 1-particle RhoCI density.
 
 Excited State   3:      Singlet-A      4.0571 eV  305.60 nm  f=0.0643  <S**2>=0.000
      70 -> 74         0.29200
      71 -> 74         0.63448
 SavETr:  write IOETrn=   770 NScale= 10 NData=  16 NLR=1 NState=    3 LETran=      64.
 NEqPCM:  Using equilibrium solvation (IEInf=0, Eps=  24.8520, EpsInf=   1.8526)
          Differentiating once with respect to electric field.
                with respect to dipole field.
          Electric field/nuclear overlap derivatives assumed to be zero.
          There are     1 degrees of freedom in the 1st order CPHF.  IDoFFX=0 NUNeed=     1.
 LinEq1:  Iter=  0 NonCon=     1 RMS=3.41D-03 Max=2.64D-01 NDo=     1
 AX will form     1 AO Fock derivatives at one time.
 LinEq1:  Iter=  1 NonCon=     1 RMS=1.29D-03 Max=1.05D-01 NDo=     1
 LinEq1:  Iter=  2 NonCon=     1 RMS=5.91D-04 Max=3.08D-02 NDo=     1
 LinEq1:  Iter=  3 NonCon=     1 RMS=1.80D-04 Max=9.73D-03 NDo=     1
 LinEq1:  Iter=  4 NonCon=     1 RMS=8.28D-05 Max=4.60D-03 NDo=     1
 LinEq1:  Iter=  5 NonCon=     1 RMS=3.23D-05 Max=2.15D-03 NDo=     1
 LinEq1:  Iter=  6 NonCon=     1 RMS=1.71D-05 Max=7.60D-04 NDo=     1
 LinEq1:  Iter=  7 NonCon=     1 RMS=7.84D-06 Max=2.46D-04 NDo=     1
 LinEq1:  Iter=  8 NonCon=     1 RMS=3.78D-06 Max=1.72D-04 NDo=     1
 LinEq1:  Iter=  9 NonCon=     1 RMS=1.61D-06 Max=5.07D-05 NDo=     1
 LinEq1:  Iter= 10 NonCon=     1 RMS=5.12D-07 Max=2.65D-05 NDo=     1
 LinEq1:  Iter= 11 NonCon=     1 RMS=2.48D-07 Max=9.15D-06 NDo=     1
 LinEq1:  Iter= 12 NonCon=     1 RMS=7.66D-08 Max=3.38D-06 NDo=     1
 LinEq1:  Iter= 13 NonCon=     1 RMS=3.07D-08 Max=1.57D-06 NDo=     1
 LinEq1:  Iter= 14 NonCon=     1 RMS=1.23D-08 Max=3.66D-07 NDo=     1
 LinEq1:  Iter= 15 NonCon=     1 RMS=4.20D-09 Max=1.84D-07 NDo=     1
 LinEq1:  Iter= 16 NonCon=     1 RMS=1.81D-09 Max=4.49D-08 NDo=     1
 LinEq1:  Iter= 17 NonCon=     1 RMS=6.39D-10 Max=3.15D-08 NDo=     1
 LinEq1:  Iter= 18 NonCon=     1 RMS=3.12D-10 Max=2.04D-08 NDo=     1
 LinEq1:  Iter= 19 NonCon=     1 RMS=1.80D-10 Max=1.33D-08 NDo=     1
 LinEq1:  Iter= 20 NonCon=     1 RMS=6.80D-11 Max=3.44D-09 NDo=     1
 LinEq1:  Iter= 21 NonCon=     1 RMS=3.81D-11 Max=1.51D-09 NDo=     1
 LinEq1:  Iter= 22 NonCon=     0 RMS=1.33D-11 Max=4.73D-10 NDo=     1
 Linear equations converged to 1.000D-10 1.000D-09 after    22 iterations.
 PCM Corrected Linear-Response - Non-equilibrium solvation:
 Corrected transition energy               =    3.2130          eV
 Total energy after correction             = -966.703862378     a.u.
 End of Minotr F.D. properties file   721 does not exist.
 End of Minotr F.D. properties file   722 does not exist.
 End of Minotr F.D. properties file   788 does not exist.

 **********************************************************************

            Population analysis using the CI Density.

 **********************************************************************

 Orbital symmetries:
       Occupied  (A) (A) (A) (A) (A) (A) (A) (A) (A) (A) (A) (A)
                 (A) (A) (A) (A) (A) (A) (A) (A) (A) (A) (A) (A)
                 (A) (A) (A) (A) (A) (A) (A) (A) (A) (A) (A) (A)
                 (A) (A) (A) (A) (A) (A) (A) (A) (A) (A) (A) (A)
                 (A) (A) (A) (A) (A) (A) (A) (A) (A) (A) (A) (A)
                 (A) (A) (A) (A) (A) (A) (A) (A) (A) (A) (A) (A)
                 (A)
       Virtual   (A) (A) (A) (A) (A) (A) (A) (A) (A) (A) (A) (A)
                 (A) (A) (A) (A) (A) (A) (A) (A) (A) (A) (A) (A)
                 (A) (A) (A) (A) (A) (A) (A) (A) (A) (A) (A) (A)
                 (A) (A) (A) (A) (A) (A) (A) (A) (A) (A) (A) (A)
                 (A) (A) (A) (A) (A) (A) (A) (A) (A) (A) (A) (A)
                 (A) (A) (A) (A) (A) (A) (A) (A) (A) (A) (A) (A)
                 (A) (A) (A) (A) (A) (A) (A) (A) (A) (A) (A) (A)
                 (A) (A) (A) (A) (A) (A) (A) (A) (A) (A) (A) (A)
                 (A) (A) (A) (A) (A) (A) (A) (A) (A) (A) (A) (A)
                 (A) (A) (A) (A) (A) (A) (A) (A) (A) (A) (A) (A)
                 (A) (A) (A) (A) (A) (A) (A) (A) (A) (A) (A) (A)
                 (A) (A) (A) (A) (A) (A) (A) (A) (A) (A) (A) (A)
                 (A) (A) (A) (A) (A) (A) (A) (A) (A) (A) (A) (A)
                 (A) (A) (A) (A) (A) (A) (A) (A) (A) (A) (A) (A)
                 (A) (A) (A) (A) (A) (A) (A) (A) (A) (A) (A) (A)
                 (A) (A) (A) (A) (A) (A) (A) (A) (A) (A) (A) (A)
                 (A) (A) (A) (A) (A) (A) (A) (A) (A) (A) (A) (A)
                 (A) (A) (A) (A) (A) (A) (A) (A) (A) (A) (A) (A)
                 (A) (A) (A) (A) (A) (A) (A) (A) (A) (A) (A) (A)
                 (A) (A) (A) (A) (A) (A) (A) (A) (A) (A) (A) (A)
                 (A) (A) (A) (A) (A) (A) (A) (A) (A) (A) (A) (A)
                 (A) (A) (A) (A) (A) (A) (A) (A) (A) (A) (A) (A)
                 (A) (A) (A) (A) (A) (A) (A) (A) (A) (A) (A) (A)
                 (A) (A) (A) (A) (A)
 The electronic state is 1-A.
 Alpha  occ. eigenvalues --  -24.76771 -24.76708 -14.47967 -14.47960 -14.45330
 Alpha  occ. eigenvalues --  -10.36574 -10.35482 -10.34240 -10.34236 -10.33822
 Alpha  occ. eigenvalues --  -10.33812 -10.31394 -10.31373 -10.31334 -10.31188
 Alpha  occ. eigenvalues --  -10.31182 -10.29900 -10.29897 -10.29765 -10.29762
 Alpha  occ. eigenvalues --   -6.94040  -1.25437  -1.22022  -1.09329  -1.07528
 Alpha  occ. eigenvalues --   -1.01968  -0.95896  -0.91001  -0.88668  -0.87230
 Alpha  occ. eigenvalues --   -0.84616  -0.82530  -0.82101  -0.75681  -0.71333
 Alpha  occ. eigenvalues --   -0.70193  -0.69791  -0.67121  -0.66974  -0.66528
 Alpha  occ. eigenvalues --   -0.63116  -0.62031  -0.60393  -0.59849  -0.59442
 Alpha  occ. eigenvalues --   -0.57739  -0.55664  -0.53853  -0.53206  -0.52881
 Alpha  occ. eigenvalues --   -0.52592  -0.52300  -0.51437  -0.51319  -0.50618
 Alpha  occ. eigenvalues --   -0.49706  -0.48927  -0.48326  -0.47511  -0.46889
 Alpha  occ. eigenvalues --   -0.46825  -0.46480  -0.45242  -0.45124  -0.43246
 Alpha  occ. eigenvalues --   -0.42736  -0.41630  -0.37453  -0.34830  -0.34347
 Alpha  occ. eigenvalues --   -0.33891  -0.28974  -0.27891
 Alpha virt. eigenvalues --   -0.04965   0.05540   0.06915   0.09762   0.11572
 Alpha virt. eigenvalues --    0.13742   0.15658   0.17027   0.17661   0.17763
 Alpha virt. eigenvalues --    0.18334   0.18458   0.20366   0.21096   0.21882
 Alpha virt. eigenvalues --    0.22340   0.22518   0.22632   0.23949   0.24501
 Alpha virt. eigenvalues --    0.26080   0.26181   0.28136   0.28478   0.29017
 Alpha virt. eigenvalues --    0.30660   0.31351   0.32154   0.34259   0.34817
 Alpha virt. eigenvalues --    0.36117   0.36252   0.37537   0.38391   0.38885
 Alpha virt. eigenvalues --    0.39907   0.40401   0.41943   0.44304   0.44629
 Alpha virt. eigenvalues --    0.45478   0.46202   0.47417   0.48591   0.48937
 Alpha virt. eigenvalues --    0.48971   0.49477   0.49608   0.49898   0.50405
 Alpha virt. eigenvalues --    0.51771   0.52986   0.53277   0.54275   0.55039
 Alpha virt. eigenvalues --    0.55844   0.56862   0.57599   0.57676   0.59159
 Alpha virt. eigenvalues --    0.59590   0.60162   0.60669   0.62843   0.63945
 Alpha virt. eigenvalues --    0.64337   0.64730   0.65278   0.66030   0.66396
 Alpha virt. eigenvalues --    0.67517   0.67901   0.69297   0.72005   0.72688
 Alpha virt. eigenvalues --    0.73647   0.73915   0.74040   0.74881   0.75092
 Alpha virt. eigenvalues --    0.76286   0.77101   0.77265   0.78206   0.79154
 Alpha virt. eigenvalues --    0.79568   0.79663   0.80667   0.81531   0.81853
 Alpha virt. eigenvalues --    0.82290   0.83204   0.84008   0.84016   0.85284
 Alpha virt. eigenvalues --    0.85548   0.87305   0.87892   0.90247   0.90828
 Alpha virt. eigenvalues --    0.91663   0.92737   0.94788   0.94938   0.95629
 Alpha virt. eigenvalues --    0.97235   0.98743   1.00279   1.01994   1.04329
 Alpha virt. eigenvalues --    1.06052   1.07355   1.08516   1.09682   1.14119
 Alpha virt. eigenvalues --    1.14610   1.16151   1.16966   1.17841   1.20498
 Alpha virt. eigenvalues --    1.21766   1.22289   1.23638   1.25259   1.26384
 Alpha virt. eigenvalues --    1.29361   1.29970   1.31866   1.32934   1.33110
 Alpha virt. eigenvalues --    1.33377   1.34132   1.35372   1.35892   1.36595
 Alpha virt. eigenvalues --    1.37276   1.37891   1.38900   1.39289   1.40990
 Alpha virt. eigenvalues --    1.42008   1.42870   1.44029   1.44993   1.46215
 Alpha virt. eigenvalues --    1.47369   1.50312   1.56171   1.57516   1.57867
 Alpha virt. eigenvalues --    1.59015   1.62437   1.62948   1.63749   1.68559
 Alpha virt. eigenvalues --    1.70535   1.71638   1.72105   1.72666   1.74246
 Alpha virt. eigenvalues --    1.74713   1.75096   1.76053   1.78329   1.79290
 Alpha virt. eigenvalues --    1.79938   1.80726   1.81468   1.82617   1.83129
 Alpha virt. eigenvalues --    1.83842   1.84833   1.85083   1.85347   1.86025
 Alpha virt. eigenvalues --    1.87964   1.88057   1.89048   1.91864   1.92924
 Alpha virt. eigenvalues --    1.94408   1.94738   1.94818   1.95446   1.95681
 Alpha virt. eigenvalues --    1.99161   2.00331   2.00831   2.01415   2.02243
 Alpha virt. eigenvalues --    2.03031   2.03979   2.04237   2.05111   2.06810
 Alpha virt. eigenvalues --    2.06939   2.07616   2.10810   2.11001   2.13058
 Alpha virt. eigenvalues --    2.15383   2.17772   2.21058   2.21164   2.22073
 Alpha virt. eigenvalues --    2.22996   2.23313   2.23972   2.26041   2.26181
 Alpha virt. eigenvalues --    2.28005   2.28607   2.29162   2.31271   2.33577
 Alpha virt. eigenvalues --    2.34420   2.35629   2.36999   2.38618   2.40578
 Alpha virt. eigenvalues --    2.41042   2.41559   2.42175   2.43384   2.44345
 Alpha virt. eigenvalues --    2.46422   2.48354   2.53988   2.58032   2.61039
 Alpha virt. eigenvalues --    2.63155   2.64392   2.65370   2.66597   2.69143
 Alpha virt. eigenvalues --    2.72275   2.73331   2.74350   2.75258   2.75646
 Alpha virt. eigenvalues --    2.77361   2.78075   2.78991   2.79968   2.80246
 Alpha virt. eigenvalues --    2.81257   2.81702   2.82635   2.85103   2.90255
 Alpha virt. eigenvalues --    2.93583   2.95112   2.96026   2.97780   3.00177
 Alpha virt. eigenvalues --    3.01041   3.07281   3.09654   3.10208   3.16293
 Alpha virt. eigenvalues --    3.17540   3.18668   3.19053   3.21564   3.22769
 Alpha virt. eigenvalues --    3.26037   3.26432   3.29455   3.33133   3.36014
 Alpha virt. eigenvalues --    3.39561   3.51208   3.54161   3.54675   3.55802
 Alpha virt. eigenvalues --    3.59546   3.61936   3.69867   3.72802   3.83821
 Alpha virt. eigenvalues --    3.84055
          Condensed to atoms (all electrons):
               1          2          3          4          5          6
     1  C    5.171035  -0.026416   0.247193   0.381684  -0.000488  -0.127116
     2  C   -0.026416   5.171386   0.247299   0.012149  -0.000513  -0.000231
     3  C    0.247193   0.247299   5.567237  -0.124663   0.021227   0.012905
     4  C    0.381684   0.012149  -0.124663   5.179371   0.356625  -0.029379
     5  C   -0.000488  -0.000513   0.021227   0.356625   5.023633   0.371142
     6  C   -0.127116  -0.000231   0.012905  -0.029379   0.371142   4.873189
     7  H    0.011062   0.000005  -0.000435  -0.053536   0.449284  -0.050629
     8  C   -0.000280  -0.127500   0.012984   0.000011   0.000001   0.000111
     9  C    0.012320   0.381314  -0.124882  -0.000076   0.000002   0.000013
    10  C   -0.000518   0.000169   0.021227   0.000002   0.000000  -0.000000
    11  H    0.000005   0.011050  -0.000436  -0.000000   0.000000   0.000000
    12  N    0.432626  -0.005805  -0.080737  -0.091442  -0.060950   0.421434
    13  N   -0.005657   0.432432  -0.081026  -0.000196  -0.000052  -0.000325
    14  B   -0.050282  -0.050078  -0.008184   0.002894  -0.001202  -0.012371
    15  F   -0.003369  -0.003395   0.001656  -0.000058   0.000005  -0.001423
    16  F   -0.003405  -0.003353   0.001699  -0.000068   0.000022   0.001032
    17  C   -0.071001  -0.070835   0.373293  -0.012252   0.000570  -0.000202
    18  C    0.007105  -0.022023  -0.071970   0.000328   0.000004  -0.000003
    19  C   -0.022017   0.007324  -0.072154  -0.000474   0.000168  -0.000029
    20  C   -0.000111   0.001601   0.009478  -0.000044  -0.000002   0.000000
    21  H   -0.000176  -0.001405  -0.012594   0.000002  -0.000000  -0.000001
    22  C    0.001635  -0.000151   0.009530  -0.000860  -0.000018  -0.000000
    23  H   -0.001166  -0.000148  -0.012907   0.003008   0.000563  -0.000088
    24  C   -0.000057  -0.000031   0.001507   0.000007   0.000001  -0.000000
    25  H    0.000001  -0.000002  -0.000308  -0.000000  -0.000000   0.000000
    26  H    0.000003  -0.000001  -0.000312   0.000000  -0.000001   0.000000
    27  H   -0.000391  -0.033614  -0.019588  -0.000001   0.000000  -0.000000
    28  H    0.000035   0.003069  -0.000491  -0.000000   0.000000   0.000007
    29  H   -0.033560  -0.000399  -0.019671   0.448998  -0.058453   0.010627
    30  H    0.003084   0.000036  -0.000489   0.009703  -0.050702   0.426124
    31  N   -0.000000  -0.000000   0.000009   0.000000   0.000000  -0.000000
    32  H   -0.000000   0.000000   0.000000   0.000000   0.000000  -0.000000
    33  H   -0.000000   0.000000   0.000000   0.000000   0.000000  -0.000000
               7          8          9         10         11         12
     1  C    0.011062  -0.000280   0.012320  -0.000518   0.000005   0.432626
     2  C    0.000005  -0.127500   0.381314   0.000169   0.011050  -0.005805
     3  C   -0.000435   0.012984  -0.124882   0.021227  -0.000436  -0.080737
     4  C   -0.053536   0.000011  -0.000076   0.000002  -0.000000  -0.091442
     5  C    0.449284   0.000001   0.000002   0.000000   0.000000  -0.060950
     6  C   -0.050629   0.000111   0.000013  -0.000000   0.000000   0.421434
     7  H    0.585780   0.000000  -0.000000   0.000000  -0.000000   0.004120
     8  C    0.000000   4.874430  -0.028920   0.370078  -0.050706  -0.000263
     9  C   -0.000000  -0.028920   5.180172   0.355877  -0.053457  -0.000183
    10  C    0.000000   0.370078   0.355877   5.024476   0.449287  -0.000058
    11  H   -0.000000  -0.050706  -0.053457   0.449287   0.585821   0.000002
    12  N    0.004120  -0.000263  -0.000183  -0.000058   0.000002   6.400612
    13  N    0.000002   0.421024  -0.091570  -0.060846   0.004128  -0.049000
    14  B    0.000131  -0.011808   0.002818  -0.001363   0.000127   0.296888
    15  F    0.000001   0.000364  -0.000039  -0.000139   0.000000  -0.034741
    16  F    0.000000  -0.000782  -0.000083   0.000123   0.000001  -0.036089
    17  C   -0.000001  -0.000193  -0.012547   0.000594  -0.000002   0.004245
    18  C    0.000000  -0.000031  -0.000313   0.000162  -0.000004  -0.000054
    19  C   -0.000004  -0.000004   0.000284   0.000007   0.000000   0.000049
    20  C   -0.000000  -0.000000  -0.000833  -0.000018  -0.000000   0.000001
    21  H    0.000000  -0.000092   0.003075   0.000587   0.000002   0.000001
    22  C   -0.000000   0.000000  -0.000035  -0.000002  -0.000000   0.000003
    23  H    0.000002  -0.000001  -0.000004   0.000000   0.000000  -0.000248
    24  C   -0.000000  -0.000000   0.000002   0.000001  -0.000000  -0.000000
    25  H   -0.000000   0.000000   0.000003  -0.000001  -0.000000  -0.000000
    26  H   -0.000000   0.000000   0.000000  -0.000000  -0.000000  -0.000000
    27  H   -0.000000   0.010611   0.449074  -0.058386  -0.004618  -0.000014
    28  H   -0.000000   0.425919   0.009711  -0.050619  -0.003366   0.000158
    29  H   -0.004610  -0.000000  -0.000001   0.000000  -0.000000   0.004724
    30  H   -0.003370   0.000007  -0.000000   0.000000  -0.000000  -0.030283
    31  N   -0.000000  -0.000000   0.000000   0.000000  -0.000000   0.000000
    32  H   -0.000000   0.000000  -0.000000  -0.000000   0.000000  -0.000000
    33  H   -0.000000   0.000000  -0.000000  -0.000000  -0.000000  -0.000000
              13         14         15         16         17         18
     1  C   -0.005657  -0.050282  -0.003369  -0.003405  -0.071001   0.007105
     2  C    0.432432  -0.050078  -0.003395  -0.003353  -0.070835  -0.022023
     3  C   -0.081026  -0.008184   0.001656   0.001699   0.373293  -0.071970
     4  C   -0.000196   0.002894  -0.000058  -0.000068  -0.012252   0.000328
     5  C   -0.000052  -0.001202   0.000005   0.000022   0.000570   0.000004
     6  C   -0.000325  -0.012371  -0.001423   0.001032  -0.000202  -0.000003
     7  H    0.000002   0.000131   0.000001   0.000000  -0.000001   0.000000
     8  C    0.421024  -0.011808   0.000364  -0.000782  -0.000193  -0.000031
     9  C   -0.091570   0.002818  -0.000039  -0.000083  -0.012547  -0.000313
    10  C   -0.060846  -0.001363  -0.000139   0.000123   0.000594   0.000162
    11  H    0.004128   0.000127   0.000000   0.000001  -0.000002  -0.000004
    12  N   -0.049000   0.296888  -0.034741  -0.036089   0.004245  -0.000054
    13  N    6.402933   0.296364  -0.036808  -0.034159   0.004197   0.000050
    14  B    0.296364   3.420607   0.459857   0.454879   0.002616   0.000035
    15  F   -0.036808   0.459857   8.890362  -0.026035   0.000004   0.000000
    16  F   -0.034159   0.454879  -0.026035   8.892308   0.000004  -0.000000
    17  C    0.004197   0.002616   0.000004   0.000004   5.451150   0.260350
    18  C    0.000050   0.000035   0.000000  -0.000000   0.260350   5.077179
    19  C   -0.000054   0.000016  -0.000000   0.000000   0.259757   0.051361
    20  C    0.000003  -0.000002  -0.000000   0.000000   0.077104   0.319303
    21  H   -0.000247   0.000014  -0.000000   0.000000  -0.074798   0.458960
    22  C    0.000001  -0.000002   0.000000  -0.000000   0.077266  -0.113761
    23  H    0.000001   0.000017   0.000000  -0.000000  -0.074899   0.012427
    24  C   -0.000000   0.000000   0.000000   0.000000  -0.163011   0.106752
    25  H   -0.000000  -0.000000   0.000000  -0.000000   0.014967  -0.061523
    26  H   -0.000000  -0.000000  -0.000000   0.000000   0.015005  -0.002261
    27  H    0.004732   0.000250   0.000001   0.000001   0.004795   0.003547
    28  H   -0.030222   0.001319   0.000402   0.000657   0.000004   0.000000
    29  H   -0.000013   0.000254   0.000001   0.000001   0.005000  -0.000318
    30  H    0.000158   0.001196   0.000240   0.000913   0.000004  -0.000000
    31  N    0.000000   0.000000   0.000000   0.000000  -0.000206   0.006563
    32  H   -0.000000  -0.000000   0.000000  -0.000000  -0.000015  -0.000448
    33  H   -0.000000  -0.000000  -0.000000   0.000000  -0.000015   0.000494
              19         20         21         22         23         24
     1  C   -0.022017  -0.000111  -0.000176   0.001635  -0.001166  -0.000057
     2  C    0.007324   0.001601  -0.001405  -0.000151  -0.000148  -0.000031
     3  C   -0.072154   0.009478  -0.012594   0.009530  -0.012907   0.001507
     4  C   -0.000474  -0.000044   0.000002  -0.000860   0.003008   0.000007
     5  C    0.000168  -0.000002  -0.000000  -0.000018   0.000563   0.000001
     6  C   -0.000029   0.000000  -0.000001  -0.000000  -0.000088  -0.000000
     7  H   -0.000004  -0.000000   0.000000  -0.000000   0.000002  -0.000000
     8  C   -0.000004  -0.000000  -0.000092   0.000000  -0.000001  -0.000000
     9  C    0.000284  -0.000833   0.003075  -0.000035  -0.000004   0.000002
    10  C    0.000007  -0.000018   0.000587  -0.000002   0.000000   0.000001
    11  H    0.000000  -0.000000   0.000002  -0.000000   0.000000  -0.000000
    12  N    0.000049   0.000001   0.000001   0.000003  -0.000248  -0.000000
    13  N   -0.000054   0.000003  -0.000247   0.000001   0.000001  -0.000000
    14  B    0.000016  -0.000002   0.000014  -0.000002   0.000017   0.000000
    15  F   -0.000000  -0.000000  -0.000000   0.000000   0.000000   0.000000
    16  F    0.000000   0.000000   0.000000  -0.000000  -0.000000   0.000000
    17  C    0.259757   0.077104  -0.074798   0.077266  -0.074899  -0.163011
    18  C    0.051361   0.319303   0.458960  -0.113761   0.012427   0.106752
    19  C    5.077839  -0.113761   0.012366   0.319216   0.459268   0.106764
    20  C   -0.113761   5.272777  -0.055646   0.021501  -0.001927   0.210354
    21  H    0.012366  -0.055646   0.634070  -0.001915  -0.000152   0.014127
    22  C    0.319216   0.021501  -0.001915   5.272901  -0.055795   0.210287
    23  H    0.459268  -0.001927  -0.000152  -0.055795   0.634147   0.014134
    24  C    0.106764   0.210354   0.014127   0.210287   0.014134   5.123705
    25  H   -0.002257   0.460237  -0.011826   0.013911   0.000013  -0.074057
    26  H   -0.061619   0.013924   0.000013   0.460361  -0.011820  -0.074204
    27  H   -0.000290   0.001300  -0.002066   0.000004  -0.000010  -0.000075
    28  H   -0.000000   0.000000  -0.000001   0.000000  -0.000000  -0.000000
    29  H    0.003439   0.000009  -0.000010   0.001271  -0.002042  -0.000069
    30  H    0.000000   0.000000  -0.000000   0.000000  -0.000001  -0.000000
    31  N    0.006548  -0.100424  -0.000086  -0.100235  -0.000085   0.476424
    32  H    0.000496   0.010493   0.000009  -0.023647  -0.000015  -0.003319
    33  H   -0.000438  -0.023706  -0.000013   0.010491   0.000008  -0.003341
              25         26         27         28         29         30
     1  C    0.000001   0.000003  -0.000391   0.000035  -0.033560   0.003084
     2  C   -0.000002  -0.000001  -0.033614   0.003069  -0.000399   0.000036
     3  C   -0.000308  -0.000312  -0.019588  -0.000491  -0.019671  -0.000489
     4  C   -0.000000   0.000000  -0.000001  -0.000000   0.448998   0.009703
     5  C   -0.000000  -0.000001   0.000000   0.000000  -0.058453  -0.050702
     6  C    0.000000   0.000000  -0.000000   0.000007   0.010627   0.426124
     7  H   -0.000000  -0.000000  -0.000000  -0.000000  -0.004610  -0.003370
     8  C    0.000000   0.000000   0.010611   0.425919  -0.000000   0.000007
     9  C    0.000003   0.000000   0.449074   0.009711  -0.000001  -0.000000
    10  C   -0.000001  -0.000000  -0.058386  -0.050619   0.000000   0.000000
    11  H   -0.000000  -0.000000  -0.004618  -0.003366  -0.000000  -0.000000
    12  N   -0.000000  -0.000000  -0.000014   0.000158   0.004724  -0.030283
    13  N   -0.000000  -0.000000   0.004732  -0.030222  -0.000013   0.000158
    14  B   -0.000000  -0.000000   0.000250   0.001319   0.000254   0.001196
    15  F    0.000000  -0.000000   0.000001   0.000402   0.000001   0.000240
    16  F   -0.000000   0.000000   0.000001   0.000657   0.000001   0.000913
    17  C    0.014967   0.015005   0.004795   0.000004   0.005000   0.000004
    18  C   -0.061523  -0.002261   0.003547   0.000000  -0.000318  -0.000000
    19  C   -0.002257  -0.061619  -0.000290  -0.000000   0.003439   0.000000
    20  C    0.460237   0.013924   0.001300   0.000000   0.000009   0.000000
    21  H   -0.011826   0.000013  -0.002066  -0.000001  -0.000010  -0.000000
    22  C    0.013911   0.460361   0.000004   0.000000   0.001271   0.000000
    23  H    0.000013  -0.011820  -0.000010  -0.000000  -0.002042  -0.000001
    24  C   -0.074057  -0.074204  -0.000075  -0.000000  -0.000069  -0.000000
    25  H    0.637167  -0.000163   0.000030  -0.000000  -0.000001  -0.000000
    26  H   -0.000163   0.637324  -0.000001  -0.000000   0.000030  -0.000000
    27  H    0.000030  -0.000001   0.594496  -0.000120  -0.000001  -0.000000
    28  H   -0.000000  -0.000000  -0.000120   0.555607  -0.000000  -0.000000
    29  H   -0.000001   0.000030  -0.000001  -0.000000   0.594655  -0.000120
    30  H   -0.000000  -0.000000  -0.000000  -0.000000  -0.000120   0.555738
    31  N   -0.009483  -0.009404  -0.000000   0.000000  -0.000000   0.000000
    32  H   -0.000226   0.004248   0.000000  -0.000000  -0.000000   0.000000
    33  H    0.004339  -0.000236  -0.000000  -0.000000  -0.000000   0.000000
              31         32         33
     1  C   -0.000000  -0.000000  -0.000000
     2  C   -0.000000   0.000000   0.000000
     3  C    0.000009   0.000000   0.000000
     4  C    0.000000   0.000000   0.000000
     5  C    0.000000   0.000000   0.000000
     6  C   -0.000000  -0.000000  -0.000000
     7  H   -0.000000  -0.000000  -0.000000
     8  C   -0.000000   0.000000   0.000000
     9  C    0.000000  -0.000000  -0.000000
    10  C    0.000000  -0.000000  -0.000000
    11  H   -0.000000   0.000000  -0.000000
    12  N    0.000000  -0.000000  -0.000000
    13  N    0.000000  -0.000000  -0.000000
    14  B    0.000000  -0.000000  -0.000000
    15  F    0.000000   0.000000  -0.000000
    16  F    0.000000  -0.000000   0.000000
    17  C   -0.000206  -0.000015  -0.000015
    18  C    0.006563  -0.000448   0.000494
    19  C    0.006548   0.000496  -0.000438
    20  C   -0.100424   0.010493  -0.023706
    21  H   -0.000086   0.000009  -0.000013
    22  C   -0.100235  -0.023647   0.010491
    23  H   -0.000085  -0.000015   0.000008
    24  C    0.476424  -0.003319  -0.003341
    25  H   -0.009483  -0.000226   0.004339
    26  H   -0.009404   0.004248  -0.000236
    27  H   -0.000000   0.000000  -0.000000
    28  H    0.000000  -0.000000  -0.000000
    29  H   -0.000000  -0.000000  -0.000000
    30  H    0.000000   0.000000   0.000000
    31  N    6.118721   0.372608   0.372713
    32  H    0.372608   0.502840  -0.027413
    33  H    0.372713  -0.027413   0.502958
 Mulliken charges:
               1
     1  C    0.078219
     2  C    0.078066
     3  C    0.103601
     4  C   -0.081731
     5  C   -0.050868
     6  C    0.105213
     7  H    0.062200
     8  C    0.105043
     9  C   -0.081723
    10  C   -0.050641
    11  H    0.062164
    12  N   -0.174996
    13  N   -0.175849
    14  B    0.195011
    15  F   -0.246887
    16  F   -0.247665
    17  C   -0.070951
    18  C   -0.031912
    19  C   -0.031803
    20  C   -0.101614
    21  H    0.037803
    22  C   -0.101957
    23  H    0.037719
    24  C    0.054099
    25  H    0.029178
    26  H    0.029112
    27  H    0.050334
    28  H    0.087930
    29  H    0.050260
    30  H    0.087761
    31  N   -0.133662
    32  H    0.164388
    33  H    0.164159
 Sum of Mulliken charges =  -0.00000
 Mulliken charges with hydrogens summed into heavy atoms:
               1
     1  C    0.078219
     2  C    0.078066
     3  C    0.103601
     4  C   -0.031471
     5  C    0.011332
     6  C    0.192974
     8  C    0.192973
     9  C   -0.031389
    10  C    0.011523
    12  N   -0.174996
    13  N   -0.175849
    14  B    0.195011
    15  F   -0.246887
    16  F   -0.247665
    17  C   -0.070951
    18  C    0.005891
    19  C    0.005916
    20  C   -0.072437
    22  C   -0.072845
    24  C    0.054099
    31  N    0.194885
 Electronic spatial extent (au):  <R**2>=           6179.9183
 Charge=             -0.0000 electrons
 Dipole moment (field-independent basis, Debye):
    X=             -9.5449    Y=             -0.4658    Z=             -0.6397  Tot=              9.5777
 Quadrupole moment (field-independent basis, Debye-Ang):
   XX=            -97.5838   YY=            -95.3921   ZZ=           -124.3145
   XY=              3.0824   XZ=              2.4153   YZ=             -3.4759
 Traceless Quadrupole moment (field-independent basis, Debye-Ang):
   XX=              8.1797   YY=             10.3713   ZZ=            -18.5510
   XY=              3.0824   XZ=              2.4153   YZ=             -3.4759
 Octapole moment (field-independent basis, Debye-Ang**2):
  XXX=           -306.3251  YYY=             -0.5433  ZZZ=             -0.3693  XYY=             47.3494
  XXY=            -18.8840  XXZ=            -19.4753  XZZ=            -14.4364  YZZ=             -0.3043
  YYZ=             -0.8104  XYZ=             24.7111
 Hexadecapole moment (field-independent basis, Debye-Ang**3):
 XXXX=          -3929.4653 YYYY=          -1835.1484 ZZZZ=           -354.2290 XXXY=            122.0634
 XXXZ=            114.8566 YYYX=              4.7685 YYYZ=             31.8622 ZZZX=              3.8427
 ZZZY=            -21.5930 XXYY=          -1092.8948 XXZZ=           -991.5365 YYZZ=           -448.1049
 XXYZ=            -92.3673 YYXZ=             -1.1218 ZZXY=              0.2217
 N-N= 1.589672572978D+03 E-N=-5.434948912619D+03  KE= 9.575060098862D+02
 Unable to Open any file for archive entry.
 1\1\GINC-X1003C3S5B0N1\SP\RwB97XD TD-FC\def2SVP\C15H12B1F2N3\1008721\1
 0-Oct-2025\0\\# td=(nstates=3,root=2) wb97xd scrf=(smd,solvent=ethanol
 ,correctedlr) def2svp\\BDP-NH2_ethanol_wb97xd_wb97xd_wb97xd\\0,1\C,0,0
 .62395,-1.214325,-0.065594\C,0,0.627556,1.216274,0.047662\C,0,-0.09136
 7,0.001912,-0.005223\C,0,0.171021,-2.543476,-0.232271\C,0,1.298817,-3.
 358185,-0.282863\C,0,2.410823,-2.51188,-0.165166\H,0,1.329485,-4.43892
 1,-0.405755\C,0,2.418946,2.509689,0.116571\C,0,0.179491,2.549905,0.190
 383\C,0,1.310047,3.36178,0.220743\H,0,1.344385,4.444846,0.319867\N,0,2
 .011169,-1.239445,-0.037899\N,0,2.014983,1.236228,0.015783\B,0,2.94110
 8,-0.004036,0.022608\F,0,3.704802,-0.024479,1.192598\F,0,3.791607,0.01
 326,-1.084451\C,0,-1.557145,0.002497,-0.000887\C,0,-2.289738,0.851612,
 -0.853236\C,0,-2.282393,-0.848666,0.855729\C,0,-3.673572,0.846196,-0.8
 5996\H,0,-1.760286,1.498705,-1.55594\C,0,-3.666101,-0.84315,0.874742\H
 ,0,-1.746618,-1.499864,1.549792\C,0,-4.398716,0.003473,0.012462\H,0,-4
 .217473,1.495186,-1.550892\H,0,-4.203838,-1.494782,1.567976\H,0,-0.857
 514,2.866863,0.277516\H,0,3.478985,2.762656,0.125084\H,0,-0.867447,-2.
 854294,-0.324569\H,0,3.469973,-2.768143,-0.179898\N,0,-5.757255,0.0283
 98,0.04283\H,0,-6.254933,-0.709333,0.525504\H,0,-6.259937,0.500028,-0.
 6986\\Version=ES64L-G16RevC.01\State=1-A\HF=-966.8219379\RMSD=9.975e-0
 9\Dipole=-3.7552658,-0.1832675,-0.2516693\Quadrupole=6.0814076,7.71083
 42,-13.7922418,2.2916975,1.7957524,-2.5842111\PG=C01 [X(C15H12B1F2N3)]
 \\@
 The archive entry for this job was punched.


 SILVERMAN'S PARADOX - IF MURPHY'S LAW CAN GO WRONG, IT WILL.
 Job cpu time:       0 days  4 hours 12 minutes  2.3 seconds.
 Elapsed time:       0 days  0 hours  7 minutes 58.5 seconds.
 File lengths (MBytes):  RWF=    960 Int=      0 D2E=      0 Chk=     25 Scr=      1
 Normal termination of Gaussian 16 at Fri Oct 10 21:58:04 2025.
