 Entering Gaussian System, Link 0=g16
 Initial command:
 /home/users/sutd/1008721/g16/l1.exe "/home/users/sutd/1008721/scratch/g16/scratch/Gau-2392605.inp" -scrdir="/home/users/sutd/1008721/scratch/g16/scratch/"
 Entering Link 1 = /home/users/sutd/1008721/g16/l1.exe PID=   2392606.
  
 Copyright (c) 1988-2019, Gaussian, Inc.  All Rights Reserved.
  
 This is part of the Gaussian(R) 16 program.  It is based on
 the Gaussian(R) 09 system (copyright 2009, Gaussian, Inc.),
 the Gaussian(R) 03 system (copyright 2003, Gaussian, Inc.),
 the Gaussian(R) 98 system (copyright 1998, Gaussian, Inc.),
 the Gaussian(R) 94 system (copyright 1995, Gaussian, Inc.),
 the Gaussian 92(TM) system (copyright 1992, Gaussian, Inc.),
 the Gaussian 90(TM) system (copyright 1990, Gaussian, Inc.),
 the Gaussian 88(TM) system (copyright 1988, Gaussian, Inc.),
 the Gaussian 86(TM) system (copyright 1986, Carnegie Mellon
 University), and the Gaussian 82(TM) system (copyright 1983,
 Carnegie Mellon University). Gaussian is a federally registered
 trademark of Gaussian, Inc.
  
 This software contains proprietary and confidential information,
 including trade secrets, belonging to Gaussian, Inc.
  
 This software is provided under written license and may be
 used, copied, transmitted, or stored only in accord with that
 written license.
  
 The following legend is applicable only to US Government
 contracts under FAR:
  
                    RESTRICTED RIGHTS LEGEND
  
 Use, reproduction and disclosure by the US Government is
 subject to restrictions as set forth in subparagraphs (a)
 and (c) of the Commercial Computer Software - Restricted
 Rights clause in FAR 52.227-19.
  
 Gaussian, Inc.
 340 Quinnipiac St., Bldg. 40, Wallingford CT 06492
  
  
 ---------------------------------------------------------------
 Warning -- This program may not be used in any manner that
 competes with the business of Gaussian, Inc. or will provide
 assistance to any competitor of Gaussian, Inc.  The licensee
 of this program is prohibited from giving any competitor of
 Gaussian, Inc. access to this program.  By using this program,
 the user acknowledges that Gaussian, Inc. is engaged in the
 business of creating and licensing software in the field of
 computational chemistry and represents and warrants to the
 licensee that it is not a competitor of Gaussian, Inc. and that
 it will not use this program in any manner prohibited above.
 ---------------------------------------------------------------
  

 Cite this work as:
 Gaussian 16, Revision C.01,
 M. J. Frisch, G. W. Trucks, H. B. Schlegel, G. E. Scuseria, 
 M. A. Robb, J. R. Cheeseman, G. Scalmani, V. Barone, 
 G. A. Petersson, H. Nakatsuji, X. Li, M. Caricato, A. V. Marenich, 
 J. Bloino, B. G. Janesko, R. Gomperts, B. Mennucci, H. P. Hratchian, 
 J. V. Ortiz, A. F. Izmaylov, J. L. Sonnenberg, D. Williams-Young, 
 F. Ding, F. Lipparini, F. Egidi, J. Goings, B. Peng, A. Petrone, 
 T. Henderson, D. Ranasinghe, V. G. Zakrzewski, J. Gao, N. Rega, 
 G. Zheng, W. Liang, M. Hada, M. Ehara, K. Toyota, R. Fukuda, 
 J. Hasegawa, M. Ishida, T. Nakajima, Y. Honda, O. Kitao, H. Nakai, 
 T. Vreven, K. Throssell, J. A. Montgomery, Jr., J. E. Peralta, 
 F. Ogliaro, M. J. Bearpark, J. J. Heyd, E. N. Brothers, K. N. Kudin, 
 V. N. Staroverov, T. A. Keith, R. Kobayashi, J. Normand, 
 K. Raghavachari, A. P. Rendell, J. C. Burant, S. S. Iyengar, 
 J. Tomasi, M. Cossi, J. M. Millam, M. Klene, C. Adamo, R. Cammi, 
 J. W. Ochterski, R. L. Martin, K. Morokuma, O. Farkas, 
 J. B. Foresman, and D. J. Fox, Gaussian, Inc., Wallingford CT, 2019.
 
 ******************************************
 Gaussian 16:  ES64L-G16RevC.01  3-Jul-2019
                10-Oct-2025 
 ******************************************
 %nprocshared=32
 Will use up to   32 processors via shared memory.
 %mem=64GB
 %oldchk=06BDP-NH2_ethanol_wb97xd_wb97xd_wb97xd.chk
 %chk=07BDP-NH2_ethanol_wb97xd_wb97xd_wb97xd.chk
 Copying data from "06BDP-NH2_ethanol_wb97xd_wb97xd_wb97xd.chk" to current chk file "07BDP-NH2_ethanol_wb97xd_wb97xd_wb97xd.chk"
 IOpt=  2 FromEx=T IUOpen= 4 IOptOp= 5 NList=   0 IFRang= 0 IUIn= 4 IUOut= 2.
 ----------------------------------------------------------------------
 # wb97xd/def2svp geom=check guess=read SCRF=(SMD, solvent=ethanol, Non
 Eq=Read)
 ----------------------------------------------------------------------
 1/29=2,38=1,172=1/1;
 2/12=2,40=1/2;
 3/5=43,7=101,11=2,14=-4,25=1,30=1,70=6032201,72=4,74=-58,116=-2/1,2,3;
 4/5=1/1;
 5/5=2,38=6,53=4/2;
 6/7=2,8=2,9=2,10=2,28=1/1;
 99/5=1,9=1/99;
 ------------------------------------
 BDP-NH2_ethanol_wb97xd_wb97xd_wb97xd
 ------------------------------------
 Structure from the checkpoint file:  "07BDP-NH2_ethanol_wb97xd_wb97xd_wb97xd.chk"
 Charge =  0 Multiplicity = 1
 Z-Matrix found in chk file.
 C,0,0.628747,-1.207699,-0.100327
 C,0,0.637675,1.217777,0.044253
 C,0,-0.104406,0.007065,-0.014515
 C,0,0.175765,-2.555915,-0.268033
 C,0,1.303661,-3.35798,-0.328179
 C,0,2.426854,-2.505904,-0.206688
 H,0,1.34443,-4.438454,-0.455833
 C,0,2.448672,2.501594,0.101538
 C,0,0.197448,2.578395,0.13595
 C,0,1.332941,3.370614,0.163825
 H,0,1.384098,4.456209,0.229094
 N,0,2.022588,-1.231605,-0.071301
 N,0,2.032717,1.225927,0.033863
 B,0,2.954668,-0.010807,0.062539
 F,0,3.664913,-0.061405,1.267535
 F,0,3.863752,0.02865,-0.997517
 C,0,-1.57761,0.00708,-0.002447
 C,0,-2.319858,0.82064,-0.876329
 C,0,-2.297586,-0.811772,0.885319
 C,0,-3.708003,0.818467,-0.868094
 H,0,-1.798056,1.457602,-1.595108
 C,0,-3.685477,-0.820394,0.903372
 H,0,-1.756649,-1.443112,1.595051
 C,0,-4.424897,-0.00519,0.02299
 H,0,-4.256785,1.455808,-1.56661
 H,0,-4.216156,-1.460461,1.613343
 H,0,-0.839741,2.90195,0.182631
 H,0,3.510429,2.74964,0.114555
 H,0,-0.864498,-2.862926,-0.349288
 H,0,3.486166,-2.763868,-0.219826
 N,0,-5.796577,-0.045764,0.002584
 H,0,-6.261598,-0.422148,0.8207
 H,0,-6.277611,0.738017,-0.423399
 Recover connectivity data from disk.
                          Input orientation:                          
 ---------------------------------------------------------------------
 Center     Atomic      Atomic             Coordinates (Angstroms)
 Number     Number       Type             X           Y           Z
 ---------------------------------------------------------------------
      1          6           0        0.628747   -1.207699   -0.100327
      2          6           0        0.637675    1.217777    0.044253
      3          6           0       -0.104406    0.007065   -0.014515
      4          6           0        0.175765   -2.555915   -0.268033
      5          6           0        1.303661   -3.357980   -0.328179
      6          6           0        2.426854   -2.505904   -0.206688
      7          1           0        1.344430   -4.438454   -0.455833
      8          6           0        2.448672    2.501594    0.101538
      9          6           0        0.197448    2.578395    0.135950
     10          6           0        1.332941    3.370614    0.163825
     11          1           0        1.384098    4.456209    0.229094
     12          7           0        2.022588   -1.231605   -0.071301
     13          7           0        2.032717    1.225927    0.033863
     14          5           0        2.954668   -0.010807    0.062539
     15          9           0        3.664913   -0.061405    1.267535
     16          9           0        3.863752    0.028650   -0.997517
     17          6           0       -1.577610    0.007080   -0.002447
     18          6           0       -2.319858    0.820640   -0.876329
     19          6           0       -2.297586   -0.811772    0.885319
     20          6           0       -3.708003    0.818467   -0.868094
     21          1           0       -1.798056    1.457602   -1.595108
     22          6           0       -3.685477   -0.820394    0.903372
     23          1           0       -1.756649   -1.443112    1.595051
     24          6           0       -4.424897   -0.005190    0.022990
     25          1           0       -4.256785    1.455808   -1.566610
     26          1           0       -4.216156   -1.460461    1.613343
     27          1           0       -0.839741    2.901950    0.182631
     28          1           0        3.510429    2.749640    0.114555
     29          1           0       -0.864498   -2.862926   -0.349288
     30          1           0        3.486166   -2.763868   -0.219826
     31          7           0       -5.796577   -0.045764    0.002584
     32          1           0       -6.261598   -0.422148    0.820700
     33          1           0       -6.277611    0.738017   -0.423399
 ---------------------------------------------------------------------
                    Distance matrix (angstroms):
                    1          2          3          4          5
     1  C    0.000000
     2  C    2.429798   0.000000
     3  C    1.421453   1.421253   0.000000
     4  C    1.432133   3.814660   2.590682   0.000000
     5  C    2.265201   4.638943   3.661225   1.385307   0.000000
     6  C    2.220324   4.138832   3.572005   2.252480   1.415046
     7  H    3.328117   5.722110   4.696438   2.223736   1.088752
     8  C    4.136633   2.220626   3.571323   5.557075   5.985843
     9  C    3.817899   1.433000   2.593356   5.150224   6.056374
    10  C    4.639678   2.265480   3.662135   6.053867   6.746622
    11  H    5.723541   3.328476   4.697858   7.132818   7.834448
    12  N    1.394348   2.816169   2.462038   2.281065   2.259273
    13  N    2.812770   1.395104   2.460744   4.223948   4.655620
    14  B    2.620875   2.622634   3.060096   3.782744   3.752606
    15  F    3.521838   3.506693   3.981973   4.555733   4.357662
    16  F    3.577536   3.592615   4.088158   4.562167   4.297830
    17  C    2.520571   2.524966   1.473253   3.116697   4.442010
    18  C    3.662050   3.122850   2.512540   4.242556   5.557987
    19  C    3.113146   3.666363   2.508034   3.238784   4.574356
    20  C    4.847908   4.458334   3.791158   5.179786   6.546067
    21  H    3.902252   2.945812   2.733273   4.665342   5.866480
    22  C    4.446341   4.856117   3.788308   4.392427   5.731279
    23  H    2.935956   3.901037   2.724633   2.905794   4.090358
    24  C    5.196206   5.208237   4.320671   5.268490   6.646871
    25  H    5.754362   5.158224   4.663701   6.117820   7.458205
    26  H    5.145254   5.761482   4.659404   4.901894   6.151298
    27  H    4.373298   2.244626   2.993316   5.569797   6.636401
    28  H    4.900081   3.256419   4.539318   6.278158   6.509137
    29  H    2.243109   4.366181   2.987752   1.087660   2.224059
    30  H    3.255885   4.902768   4.540091   3.317276   2.264517
    31  N    6.530350   6.557276   5.692442   6.484054   7.841783
    32  H    6.995873   7.133876   6.228388   6.868620   8.195863
    33  H    7.182476   6.947665   6.229762   7.247081   8.617537
                    6          7          8          9         10
     6  C    0.000000
     7  H    2.229005   0.000000
     8  C    5.017023   7.049417   0.000000
     9  C    5.562171   7.134560   2.252797   0.000000
    10  C    5.988939   7.833623   1.415603   1.384822   0.000000
    11  H    7.053245   8.921083   2.229374   2.223286   1.088758
    12  N    1.343726   3.300249   3.761409   4.229680   4.659540
    13  N    3.760289   5.727020   1.343475   2.282061   2.259703
    14  B    2.564484   4.739793   2.563145   3.783070   3.751568
    15  F    3.111543   5.245302   3.067206   4.502482   4.293603
    16  F    3.018949   5.157075   3.053821   4.607356   4.349993
    17  C    4.732075   5.339162   4.737548   3.127562   4.451103
    18  C    5.834860   6.423542   5.149826   3.232838   4.574629
    19  C    5.136428   5.311854   5.841205   4.275509   5.585126
    20  C    7.008949   7.302894   6.455831   4.399773   5.743642
    21  H    5.957093   6.777658   4.690760   2.869630   4.068981
    22  C    6.436907   6.343324   7.021846   5.217069   6.579969
    23  H    4.677338   4.774399   5.956174   4.703189   5.896264
    24  C    7.297453   7.291655   7.316836   5.296579   6.675971
    25  H    7.887685   8.206690   6.988529   4.898888   6.156779
    26  H    6.966710   6.638528   7.899580   6.162382   7.498858
    27  H    6.329858   7.685035   3.313687   1.087487   2.222734
    28  H    5.375693   7.528983   1.090424   3.317473   2.264838
    29  H    3.313729   2.715327   6.321267   5.565174   6.629408
    30  H    1.090349   2.728914   5.376315   6.283472   6.512713
    31  N    8.586088   8.396419   8.630351   6.544642   7.907444
    32  H    8.993707   8.695511   9.215979   7.154818   8.514314
    33  H    9.291808   9.213708   8.918171   6.754721   8.074398
                   11         12         13         14         15
    11  H    0.000000
    12  N    5.731416   0.000000
    13  N    3.300537   2.459802   0.000000
    14  B    4.738002   1.541763   1.542831   0.000000
    15  F    5.166170   2.420554   2.417278   1.399651   0.000000
    16  F    5.220779   2.415782   2.418658   1.397036   2.275546
    17  C    5.349773   3.807953   3.810691   4.532779   5.394589
    18  C    5.306469   4.869971   4.465156   5.421568   6.418071
    19  C    6.460422   4.444692   4.860938   5.376308   6.021672
    20  C    6.353462   6.138188   5.825411   6.778271   7.726252
    21  H    4.737664   4.914381   4.169178   5.243320   6.351861
    22  C    7.348318   5.805264   6.135244   6.741955   7.398440
    23  H    6.821445   4.135710   4.890846   5.157189   5.604437
    24  C    7.327413   6.563768   6.573929   7.379673   8.185174
    25  H    6.636755   6.992043   6.494012   7.537250   8.549129
    26  H    8.263533   6.466245   6.982825   7.478449   8.011753
    27  H    2.713547   5.034251   3.328994   4.784989   5.500036
    28  H    2.728879   4.254236   2.124110   2.816317   3.042236
    29  H    7.678571   3.327725   5.025871   4.784372   5.565806
    30  H    7.533242   2.124135   4.253861   2.818078   3.089903
    31  N    8.478276   7.908920   7.931962   8.751520   9.545687
    32  H    9.088731   8.371298   8.492993   9.256542   9.943109
    33  H    8.541223   8.537956   8.337188   9.275336  10.116922
                   16         17         18         19         20
    16  F    0.000000
    17  C    5.531641   0.000000
    18  C    6.235300   1.405874   0.000000
    19  C    6.497189   1.406063   2.401805   0.000000
    20  C    7.613937   2.438497   1.388171   2.778743   0.000000
    21  H    5.869846   2.165451   1.092996   3.398839   2.141247
    22  C    7.831035   2.438919   2.779432   1.388035   2.413393
    23  H    6.362107   2.164974   3.398455   1.093125   3.871641
    24  C    8.351304   2.847427   2.433508   2.433031   1.409389
    25  H    8.264609   3.423945   2.152118   3.871994   1.093293
    26  H    8.620844   3.424380   3.872704   2.152145   3.407237
    27  H    5.636617   2.993155   2.764777   4.051026   3.697547
    28  H    2.960630   5.781303   6.220542   6.856440   7.536630
    29  H    5.580122   2.977543   3.995560   2.790202   4.680527
    30  H    2.923274   5.776438   6.854897   6.203532   8.062843
    31  N    9.712245   4.219301   3.689271   3.689028   2.422213
    32  H   10.297177   4.775097   4.467857   3.983638   3.303331
    33  H   10.182340   4.775089   3.984442   4.467123   2.609044
                   21         22         23         24         25
    21  H    0.000000
    22  C    3.872212   0.000000
    23  H    4.311957   2.141629   0.000000
    24  C    3.414425   1.409387   3.414461   0.000000
    25  H    2.458895   3.407095   4.964929   2.165550   0.000000
    26  H    4.965527   1.093327   2.459636   2.165781   4.314902
    27  H    2.482915   4.740625   4.659959   4.618473   4.102117
    28  H    5.724712   8.071458   6.892978   8.400409   8.051704
    29  H    4.592446   3.701218   2.567540   4.580577   5.625029
    30  H    6.901827   7.514727   5.703094   8.381777   8.920358
    31  N    4.560800   2.422440   4.561749   1.372432   2.662339
    32  H    5.412282   2.608033   4.683647   2.045401   3.639401
    33  H    4.685842   3.302745   5.410227   2.045524   2.430204
                   26         27         28         29         30
    26  H    0.000000
    27  H    5.698925   0.000000
    28  H    8.925885   4.353368   0.000000
    29  H    4.129460   5.789417   7.131342   0.000000
    30  H    8.024035   7.139813   5.523692   4.353717   0.000000
    31  N    2.663389   5.769892   9.718394   5.690836   9.675065
    32  H    2.426975   6.391658  10.298126   6.037794  10.078951
    33  H    3.637474   5.883902  10.007085   6.501852  10.374776
                   31         32         33
    31  N    0.000000
    32  H    1.013520   0.000000
    33  H    1.013493   1.701182   0.000000
 Stoichiometry    C15H12BF2N3
 Framework group  C1[X(C15H12BF2N3)]
 Deg. of freedom    93
 Full point group                 C1      NOp   1
 Largest Abelian subgroup         C1      NOp   1
 Largest concise Abelian subgroup C1      NOp   1
                         Standard orientation:                         
 ---------------------------------------------------------------------
 Center     Atomic      Atomic             Coordinates (Angstroms)
 Number     Number       Type             X           Y           Z
 ---------------------------------------------------------------------
      1          6           0        0.628747   -1.207699   -0.100327
      2          6           0        0.637675    1.217777    0.044253
      3          6           0       -0.104406    0.007065   -0.014515
      4          6           0        0.175765   -2.555915   -0.268033
      5          6           0        1.303661   -3.357980   -0.328179
      6          6           0        2.426854   -2.505904   -0.206688
      7          1           0        1.344430   -4.438454   -0.455833
      8          6           0        2.448672    2.501594    0.101538
      9          6           0        0.197448    2.578395    0.135950
     10          6           0        1.332941    3.370614    0.163825
     11          1           0        1.384098    4.456209    0.229094
     12          7           0        2.022588   -1.231605   -0.071301
     13          7           0        2.032717    1.225927    0.033863
     14          5           0        2.954668   -0.010807    0.062539
     15          9           0        3.664913   -0.061405    1.267535
     16          9           0        3.863752    0.028650   -0.997517
     17          6           0       -1.577610    0.007080   -0.002447
     18          6           0       -2.319858    0.820640   -0.876329
     19          6           0       -2.297586   -0.811772    0.885319
     20          6           0       -3.708003    0.818467   -0.868094
     21          1           0       -1.798056    1.457602   -1.595108
     22          6           0       -3.685477   -0.820394    0.903372
     23          1           0       -1.756649   -1.443112    1.595051
     24          6           0       -4.424897   -0.005190    0.022990
     25          1           0       -4.256785    1.455808   -1.566610
     26          1           0       -4.216156   -1.460461    1.613343
     27          1           0       -0.839741    2.901950    0.182631
     28          1           0        3.510429    2.749640    0.114555
     29          1           0       -0.864498   -2.862926   -0.349288
     30          1           0        3.486166   -2.763868   -0.219826
     31          7           0       -5.796577   -0.045764    0.002584
     32          1           0       -6.261598   -0.422148    0.820700
     33          1           0       -6.277611    0.738017   -0.423399
 ---------------------------------------------------------------------
 Rotational constants (GHZ):           0.5786882           0.2116879           0.1653387
 Standard basis: def2SVP (5D, 7F)
 There are   375 symmetry adapted cartesian basis functions of A   symmetry.
 There are   354 symmetry adapted basis functions of A   symmetry.
   354 basis functions,   609 primitive gaussians,   375 cartesian basis functions
    73 alpha electrons       73 beta electrons
       nuclear repulsion energy      1583.8957424208 Hartrees.
 NAtoms=   33 NActive=   33 NUniq=   33 SFac= 1.00D+00 NAtFMM=   60 NAOKFM=F Big=F
 Integral buffers will be    131072 words long.
 Raffenetti 2 integral format.
 Two-electron integral symmetry is turned on.
 Nuclear repulsion after empirical dispersion term =     1583.8706090301 Hartrees.
 ------------------------------------------------------------------------------
 Polarizable Continuum Model (PCM)
 =================================
 Model                : PCM.
 Atomic radii         : SMD-Coulomb.
 Polarization charges : Total charges.
 Charge compensation  : None.
 Solution method      : On-the-fly selection.
 Cavity type          : VdW (van der Waals Surface) (Alpha=1.000).
 Cavity algorithm     : GePol (No added spheres)
                        Default sphere list used, NSphG=   33.
                        Lebedev-Laikov grids with approx.  5.0 points / Ang**2.
                        Smoothing algorithm: York/Karplus (Gamma=1.0000).
                        Polarization charges: spherical gaussians, with
                                              point-specific exponents (IZeta= 3).
                        Self-potential: point-specific (ISelfS= 7).
                        Self-field    : sphere-specific E.n sum rule (ISelfD= 2).
 Solvent              : Ethanol, Eps=  24.852000 Eps(inf)=   1.852593
 ------------------------------------------------------------------------------
 ------------------------------------------------------------------------------
 Atomic radii for non-electrostatic terms: SMD-CDS.
 ------------------------------------------------------------------------------
 Nuclear repulsion after PCM non-electrostatic terms =     1583.8698910098 Hartrees.
 One-electron integrals computed using PRISM.
   1 Symmetry operations used in ECPInt.
 ECPInt:  NShTT=   13203 NPrTT=   49137 LenC2=   11952 LenP2D=   30949.
 LDataN:  DoStor=T MaxTD1= 4 Len=   56
 NBasis=   354 RedAO= T EigKep=  2.55D-04  NBF=   354
 NBsUse=   354 1.00D-06 EigRej= -1.00D+00 NBFU=   354
 Initial guess from the checkpoint file:  "07BDP-NH2_ethanol_wb97xd_wb97xd_wb97xd.chk"
 B after Tr=    -0.000000   -0.000000    0.000000
         Rot=    1.000000   -0.000000    0.000000    0.000000 Ang=   0.00 deg.
 Requested convergence on RMS density matrix=1.00D-08 within 128 cycles.
 Requested convergence on MAX density matrix=1.00D-06.
 Requested convergence on             energy=1.00D-06.
 No special actions if energy rises.
 Inv3:  Mode=1 IEnd=    19953723.
 Iteration    1 A*A^-1 deviation from unit magnitude is 5.88D-15 for   2575.
 Iteration    1 A*A^-1 deviation from orthogonality  is 2.37D-15 for   2556    582.
 Iteration    1 A^-1*A deviation from unit magnitude is 5.88D-15 for   2575.
 Iteration    1 A^-1*A deviation from orthogonality  is 2.24D-15 for   2574   2558.
 NEqPCM:  Using non-equilibrium solvation (IEInf=1, Eps=  24.8520, EpsInf=   1.8526)
 Inv3:  Mode=1 IEnd=    19953723.
 Iteration    1 A*A^-1 deviation from unit magnitude is 6.66D-15 for   2578.
 Iteration    1 A*A^-1 deviation from orthogonality  is 5.08D-15 for   2556    582.
 Iteration    1 A^-1*A deviation from unit magnitude is 6.66D-15 for   2578.
 Iteration    1 A^-1*A deviation from orthogonality  is 2.09D-15 for   2565   1044.
 Error on total polarization charges =  0.02223
 SCF Done:  E(RwB97XD) =  -966.819577446     A.U. after   11 cycles
            NFock= 11  Conv=0.70D-08     -V/T= 2.0101
 SMD-CDS (non-electrostatic) energy       (kcal/mol) =      -0.45
 (included in total energy above)

 **********************************************************************

            Population analysis using the SCF Density.

 **********************************************************************

 Orbital symmetries:
       Occupied  (A) (A) (A) (A) (A) (A) (A) (A) (A) (A) (A) (A)
                 (A) (A) (A) (A) (A) (A) (A) (A) (A) (A) (A) (A)
                 (A) (A) (A) (A) (A) (A) (A) (A) (A) (A) (A) (A)
                 (A) (A) (A) (A) (A) (A) (A) (A) (A) (A) (A) (A)
                 (A) (A) (A) (A) (A) (A) (A) (A) (A) (A) (A) (A)
                 (A) (A) (A) (A) (A) (A) (A) (A) (A) (A) (A) (A)
                 (A)
       Virtual   (A) (A) (A) (A) (A) (A) (A) (A) (A) (A) (A) (A)
                 (A) (A) (A) (A) (A) (A) (A) (A) (A) (A) (A) (A)
                 (A) (A) (A) (A) (A) (A) (A) (A) (A) (A) (A) (A)
                 (A) (A) (A) (A) (A) (A) (A) (A) (A) (A) (A) (A)
                 (A) (A) (A) (A) (A) (A) (A) (A) (A) (A) (A) (A)
                 (A) (A) (A) (A) (A) (A) (A) (A) (A) (A) (A) (A)
                 (A) (A) (A) (A) (A) (A) (A) (A) (A) (A) (A) (A)
                 (A) (A) (A) (A) (A) (A) (A) (A) (A) (A) (A) (A)
                 (A) (A) (A) (A) (A) (A) (A) (A) (A) (A) (A) (A)
                 (A) (A) (A) (A) (A) (A) (A) (A) (A) (A) (A) (A)
                 (A) (A) (A) (A) (A) (A) (A) (A) (A) (A) (A) (A)
                 (A) (A) (A) (A) (A) (A) (A) (A) (A) (A) (A) (A)
                 (A) (A) (A) (A) (A) (A) (A) (A) (A) (A) (A) (A)
                 (A) (A) (A) (A) (A) (A) (A) (A) (A) (A) (A) (A)
                 (A) (A) (A) (A) (A) (A) (A) (A) (A) (A) (A) (A)
                 (A) (A) (A) (A) (A) (A) (A) (A) (A) (A) (A) (A)
                 (A) (A) (A) (A) (A) (A) (A) (A) (A) (A) (A) (A)
                 (A) (A) (A) (A) (A) (A) (A) (A) (A) (A) (A) (A)
                 (A) (A) (A) (A) (A) (A) (A) (A) (A) (A) (A) (A)
                 (A) (A) (A) (A) (A) (A) (A) (A) (A) (A) (A) (A)
                 (A) (A) (A) (A) (A) (A) (A) (A) (A) (A) (A) (A)
                 (A) (A) (A) (A) (A) (A) (A) (A) (A) (A) (A) (A)
                 (A) (A) (A) (A) (A) (A) (A) (A) (A) (A) (A) (A)
                 (A) (A) (A) (A) (A)
 The electronic state is 1-A.
 Alpha  occ. eigenvalues --  -24.76584 -24.76482 -14.48077 -14.48072 -14.45384
 Alpha  occ. eigenvalues --  -10.36792 -10.35563 -10.34410 -10.34397 -10.34081
 Alpha  occ. eigenvalues --  -10.34062 -10.31832 -10.31670 -10.31664 -10.31330
 Alpha  occ. eigenvalues --  -10.31314 -10.30302 -10.30295 -10.29798 -10.29788
 Alpha  occ. eigenvalues --   -6.93841  -1.25214  -1.21759  -1.08935  -1.07088
 Alpha  occ. eigenvalues --   -1.01962  -0.95959  -0.90901  -0.88555  -0.87099
 Alpha  occ. eigenvalues --   -0.84808  -0.82772  -0.81649  -0.75599  -0.71517
 Alpha  occ. eigenvalues --   -0.69976  -0.69861  -0.67095  -0.66850  -0.66369
 Alpha  occ. eigenvalues --   -0.62740  -0.62111  -0.60318  -0.59719  -0.59332
 Alpha  occ. eigenvalues --   -0.57500  -0.55563  -0.53822  -0.53104  -0.53005
 Alpha  occ. eigenvalues --   -0.52444  -0.52293  -0.51374  -0.51228  -0.50699
 Alpha  occ. eigenvalues --   -0.49562  -0.48985  -0.48315  -0.47588  -0.46790
 Alpha  occ. eigenvalues --   -0.46488  -0.46304  -0.45243  -0.44975  -0.43160
 Alpha  occ. eigenvalues --   -0.42968  -0.41647  -0.37420  -0.34870  -0.34541
 Alpha  occ. eigenvalues --   -0.33965  -0.28557  -0.28468
 Alpha virt. eigenvalues --   -0.04984   0.05106   0.06438   0.09584   0.11559
 Alpha virt. eigenvalues --    0.13667   0.15351   0.16734   0.17604   0.17676
 Alpha virt. eigenvalues --    0.17987   0.18396   0.20511   0.21035   0.21816
 Alpha virt. eigenvalues --    0.22166   0.22513   0.22669   0.23578   0.24160
 Alpha virt. eigenvalues --    0.25864   0.26061   0.27827   0.28356   0.29129
 Alpha virt. eigenvalues --    0.30863   0.31269   0.31751   0.33988   0.34699
 Alpha virt. eigenvalues --    0.35739   0.36287   0.37143   0.38274   0.39076
 Alpha virt. eigenvalues --    0.39741   0.39961   0.41645   0.43896   0.44649
 Alpha virt. eigenvalues --    0.45260   0.45737   0.47421   0.48588   0.48720
 Alpha virt. eigenvalues --    0.48964   0.49454   0.49799   0.50028   0.50491
 Alpha virt. eigenvalues --    0.51441   0.52540   0.53104   0.54327   0.54571
 Alpha virt. eigenvalues --    0.55298   0.56798   0.57341   0.57621   0.58953
 Alpha virt. eigenvalues --    0.59618   0.60033   0.60404   0.62484   0.63649
 Alpha virt. eigenvalues --    0.64197   0.64752   0.65362   0.65961   0.66246
 Alpha virt. eigenvalues --    0.67383   0.67680   0.69251   0.71752   0.72463
 Alpha virt. eigenvalues --    0.73375   0.73625   0.73798   0.74821   0.75033
 Alpha virt. eigenvalues --    0.75903   0.76803   0.76985   0.77890   0.78958
 Alpha virt. eigenvalues --    0.79061   0.79410   0.80429   0.81295   0.81479
 Alpha virt. eigenvalues --    0.81880   0.82725   0.83316   0.83512   0.84741
 Alpha virt. eigenvalues --    0.85017   0.87309   0.87455   0.90056   0.90232
 Alpha virt. eigenvalues --    0.91150   0.92276   0.93921   0.94462   0.95478
 Alpha virt. eigenvalues --    0.97581   0.98308   1.00373   1.01357   1.04214
 Alpha virt. eigenvalues --    1.05687   1.06995   1.08413   1.08872   1.13021
 Alpha virt. eigenvalues --    1.13689   1.14906   1.16403   1.16752   1.17824
 Alpha virt. eigenvalues --    1.20850   1.22532   1.24034   1.25433   1.26865
 Alpha virt. eigenvalues --    1.28828   1.29284   1.31948   1.32646   1.33105
 Alpha virt. eigenvalues --    1.33211   1.33814   1.35163   1.35785   1.36135
 Alpha virt. eigenvalues --    1.37307   1.38219   1.38395   1.39018   1.40603
 Alpha virt. eigenvalues --    1.41476   1.42213   1.43184   1.45005   1.46368
 Alpha virt. eigenvalues --    1.47566   1.49620   1.56122   1.57715   1.58752
 Alpha virt. eigenvalues --    1.59830   1.63000   1.63374   1.63427   1.68845
 Alpha virt. eigenvalues --    1.70576   1.71444   1.71797   1.72742   1.74488
 Alpha virt. eigenvalues --    1.74586   1.75314   1.76380   1.77642   1.78674
 Alpha virt. eigenvalues --    1.79146   1.80399   1.81090   1.82658   1.82954
 Alpha virt. eigenvalues --    1.83851   1.84307   1.84601   1.84903   1.85714
 Alpha virt. eigenvalues --    1.87321   1.87905   1.88425   1.90998   1.92187
 Alpha virt. eigenvalues --    1.93906   1.94423   1.94815   1.95471   1.95639
 Alpha virt. eigenvalues --    1.99053   2.00057   2.00975   2.01509   2.02260
 Alpha virt. eigenvalues --    2.02321   2.03264   2.03729   2.04912   2.06213
 Alpha virt. eigenvalues --    2.06572   2.07248   2.10208   2.11319   2.12126
 Alpha virt. eigenvalues --    2.14842   2.17094   2.20240   2.20476   2.20921
 Alpha virt. eigenvalues --    2.22244   2.22722   2.23420   2.25093   2.25470
 Alpha virt. eigenvalues --    2.27085   2.27601   2.28204   2.31066   2.33790
 Alpha virt. eigenvalues --    2.34078   2.35279   2.35865   2.38871   2.40219
 Alpha virt. eigenvalues --    2.40656   2.41120   2.42011   2.42866   2.43097
 Alpha virt. eigenvalues --    2.45392   2.46418   2.54083   2.57268   2.60429
 Alpha virt. eigenvalues --    2.62500   2.64143   2.64540   2.66469   2.68032
 Alpha virt. eigenvalues --    2.71264   2.72177   2.73677   2.74579   2.75034
 Alpha virt. eigenvalues --    2.76611   2.77527   2.78353   2.79498   2.79610
 Alpha virt. eigenvalues --    2.81007   2.81161   2.82173   2.86685   2.90328
 Alpha virt. eigenvalues --    2.93928   2.95161   2.95302   2.97197   2.99708
 Alpha virt. eigenvalues --    3.03062   3.06862   3.08656   3.08994   3.13364
 Alpha virt. eigenvalues --    3.17359   3.18890   3.19309   3.21674   3.22802
 Alpha virt. eigenvalues --    3.26125   3.26281   3.28295   3.32311   3.34350
 Alpha virt. eigenvalues --    3.38602   3.49945   3.53104   3.54251   3.54840
 Alpha virt. eigenvalues --    3.57781   3.59057   3.69703   3.72491   3.83742
 Alpha virt. eigenvalues --    3.84097
          Condensed to atoms (all electrons):
               1          2          3          4          5          6
     1  C    5.184621  -0.027448   0.305612   0.398394  -0.014906  -0.134653
     2  C   -0.027448   5.186565   0.305313   0.010426  -0.000408   0.000521
     3  C    0.305612   0.305313   5.302130  -0.100724   0.018158   0.009394
     4  C    0.398394   0.010426  -0.100724   5.069535   0.381084  -0.021109
     5  C   -0.014906  -0.000408   0.018158   0.381084   5.024082   0.391718
     6  C   -0.134653   0.000521   0.009394  -0.021109   0.391718   4.832072
     7  H    0.010796   0.000005  -0.000426  -0.054764   0.450534  -0.049827
     8  C    0.000444  -0.135276   0.009544   0.000025  -0.000002  -0.000002
     9  C    0.010575   0.397148  -0.101139  -0.000112   0.000003   0.000027
    10  C   -0.000429  -0.013977   0.018143   0.000003   0.000000  -0.000003
    11  H    0.000005   0.010795  -0.000428  -0.000000   0.000000   0.000000
    12  N    0.441868  -0.007412  -0.068206  -0.093277  -0.059009   0.442852
    13  N   -0.007181   0.442067  -0.068498  -0.000259  -0.000033   0.000270
    14  B   -0.050333  -0.050000  -0.003680   0.002322  -0.000631  -0.009569
    15  F   -0.003173  -0.003146   0.001450  -0.000034  -0.000078  -0.002087
    16  F   -0.003196  -0.003168   0.001528  -0.000071   0.000124   0.000435
    17  C   -0.073790  -0.074827   0.371333  -0.011416   0.000445  -0.000152
    18  C    0.003888  -0.017378  -0.066185  -0.000039   0.000010   0.000006
    19  C   -0.017631   0.004029  -0.065284   0.000571   0.000044  -0.000027
    20  C   -0.000093   0.001566   0.009369  -0.000023  -0.000001   0.000000
    21  H   -0.000411  -0.001121  -0.011028  -0.000035   0.000001   0.000001
    22  C    0.001510  -0.000060   0.009444  -0.000646  -0.000015  -0.000001
    23  H   -0.000937  -0.000256  -0.011441   0.002395   0.000391  -0.000058
    24  C    0.000006  -0.000031   0.000937   0.000004   0.000001  -0.000000
    25  H   -0.000002  -0.000001  -0.000259  -0.000000   0.000000   0.000000
    26  H   -0.000011   0.000000  -0.000253  -0.000010  -0.000000   0.000000
    27  H   -0.000247  -0.033019  -0.017172  -0.000000   0.000000  -0.000000
    28  H    0.000042   0.003175  -0.000454  -0.000000   0.000000   0.000006
    29  H   -0.032327  -0.000286  -0.017592   0.445852  -0.057057   0.010323
    30  H    0.003180   0.000044  -0.000451   0.009324  -0.049254   0.426514
    31  N   -0.000000  -0.000000   0.000010   0.000000   0.000000  -0.000000
    32  H    0.000000  -0.000000   0.000000  -0.000000  -0.000000   0.000000
    33  H    0.000000  -0.000000   0.000000  -0.000000  -0.000000   0.000000
               7          8          9         10         11         12
     1  C    0.010796   0.000444   0.010575  -0.000429   0.000005   0.441868
     2  C    0.000005  -0.135276   0.397148  -0.013977   0.010795  -0.007412
     3  C   -0.000426   0.009544  -0.101139   0.018143  -0.000428  -0.068206
     4  C   -0.054764   0.000025  -0.000112   0.000003  -0.000000  -0.093277
     5  C    0.450534  -0.000002   0.000003   0.000000   0.000000  -0.059009
     6  C   -0.049827  -0.000002   0.000027  -0.000003   0.000000   0.442852
     7  H    0.591074   0.000000  -0.000000   0.000000  -0.000000   0.004130
     8  C    0.000000   4.832477  -0.020371   0.390096  -0.049846   0.000331
     9  C   -0.000000  -0.020371   5.070583   0.380614  -0.054681  -0.000244
    10  C    0.000000   0.390096   0.380614   5.024091   0.450506  -0.000041
    11  H   -0.000000  -0.049846  -0.054681   0.450506   0.590984   0.000002
    12  N    0.004130   0.000331  -0.000244  -0.000041   0.000002   6.355246
    13  N    0.000002   0.442889  -0.093253  -0.058776   0.004133  -0.054360
    14  B    0.000141  -0.008851   0.002233  -0.000788   0.000137   0.294329
    15  F    0.000001  -0.001351  -0.000012  -0.000176   0.000001  -0.034033
    16  F    0.000000  -0.000348  -0.000086   0.000180   0.000001  -0.034324
    17  C   -0.000002  -0.000141  -0.011692   0.000500  -0.000002   0.003737
    18  C    0.000000  -0.000032   0.000393   0.000101  -0.000003  -0.000069
    19  C   -0.000004   0.000003  -0.000100   0.000015   0.000000   0.000048
    20  C   -0.000000  -0.000001  -0.000569  -0.000018  -0.000000   0.000001
    21  H    0.000000  -0.000073   0.002295   0.000509   0.000002  -0.000003
    22  C   -0.000000   0.000000  -0.000018  -0.000001  -0.000000   0.000003
    23  H    0.000001   0.000000  -0.000044   0.000001   0.000000  -0.000230
    24  C    0.000000  -0.000000   0.000006   0.000001   0.000000  -0.000000
    25  H   -0.000000   0.000000  -0.000013  -0.000000  -0.000000  -0.000000
    26  H   -0.000000   0.000000  -0.000000  -0.000000  -0.000000  -0.000000
    27  H   -0.000000   0.010335   0.446306  -0.056848  -0.004696  -0.000013
    28  H   -0.000000   0.426127   0.009313  -0.049027  -0.003316   0.000158
    29  H   -0.004654  -0.000000   0.000000   0.000000  -0.000000   0.004415
    30  H   -0.003325   0.000007  -0.000000   0.000000  -0.000000  -0.029526
    31  N   -0.000000  -0.000000   0.000000   0.000000  -0.000000   0.000000
    32  H    0.000000   0.000000   0.000000   0.000000  -0.000000  -0.000000
    33  H    0.000000  -0.000000   0.000000   0.000000  -0.000000  -0.000000
              13         14         15         16         17         18
     1  C   -0.007181  -0.050333  -0.003173  -0.003196  -0.073790   0.003888
     2  C    0.442067  -0.050000  -0.003146  -0.003168  -0.074827  -0.017378
     3  C   -0.068498  -0.003680   0.001450   0.001528   0.371333  -0.066185
     4  C   -0.000259   0.002322  -0.000034  -0.000071  -0.011416  -0.000039
     5  C   -0.000033  -0.000631  -0.000078   0.000124   0.000445   0.000010
     6  C    0.000270  -0.009569  -0.002087   0.000435  -0.000152   0.000006
     7  H    0.000002   0.000141   0.000001   0.000000  -0.000002   0.000000
     8  C    0.442889  -0.008851  -0.001351  -0.000348  -0.000141  -0.000032
     9  C   -0.093253   0.002233  -0.000012  -0.000086  -0.011692   0.000393
    10  C   -0.058776  -0.000788  -0.000176   0.000180   0.000500   0.000101
    11  H    0.004133   0.000137   0.000001   0.000001  -0.000002  -0.000003
    12  N   -0.054360   0.294329  -0.034033  -0.034324   0.003737  -0.000069
    13  N    6.358054   0.292997  -0.035078  -0.033471   0.003578   0.000062
    14  B    0.292997   3.413748   0.464006   0.452604   0.002639   0.000049
    15  F   -0.035078   0.464006   8.886926  -0.026359   0.000005   0.000000
    16  F   -0.033471   0.452604  -0.026359   8.893423   0.000004  -0.000000
    17  C    0.003578   0.002639   0.000005   0.000004   5.482703   0.251222
    18  C    0.000062   0.000049   0.000000  -0.000000   0.251222   5.054933
    19  C   -0.000065   0.000000  -0.000000  -0.000000   0.252104   0.065631
    20  C    0.000003  -0.000002  -0.000000   0.000000   0.078089   0.319347
    21  H   -0.000208   0.000015  -0.000000   0.000000  -0.073143   0.458726
    22  C    0.000001  -0.000002   0.000000  -0.000000   0.078335  -0.118957
    23  H   -0.000003   0.000022   0.000000  -0.000000  -0.073297   0.012717
    24  C   -0.000000   0.000000   0.000000   0.000000  -0.164506   0.110994
    25  H   -0.000000  -0.000000   0.000000  -0.000000   0.014885  -0.060961
    26  H   -0.000000  -0.000000  -0.000000   0.000000   0.014827  -0.002264
    27  H    0.004381   0.000226   0.000001   0.000001   0.003477   0.003310
    28  H   -0.029421   0.000995   0.000121   0.001068   0.000003   0.000000
    29  H   -0.000013   0.000235   0.000001   0.000001   0.004123  -0.000399
    30  H    0.000156   0.000824   0.000060   0.001234   0.000002  -0.000000
    31  N    0.000000   0.000000   0.000000   0.000000  -0.000253   0.006392
    32  H   -0.000000  -0.000000   0.000000  -0.000000  -0.000008  -0.000424
    33  H   -0.000000  -0.000000  -0.000000   0.000000  -0.000012   0.000515
              19         20         21         22         23         24
     1  C   -0.017631  -0.000093  -0.000411   0.001510  -0.000937   0.000006
     2  C    0.004029   0.001566  -0.001121  -0.000060  -0.000256  -0.000031
     3  C   -0.065284   0.009369  -0.011028   0.009444  -0.011441   0.000937
     4  C    0.000571  -0.000023  -0.000035  -0.000646   0.002395   0.000004
     5  C    0.000044  -0.000001   0.000001  -0.000015   0.000391   0.000001
     6  C   -0.000027   0.000000   0.000001  -0.000001  -0.000058  -0.000000
     7  H   -0.000004  -0.000000   0.000000  -0.000000   0.000001   0.000000
     8  C    0.000003  -0.000001  -0.000073   0.000000   0.000000  -0.000000
     9  C   -0.000100  -0.000569   0.002295  -0.000018  -0.000044   0.000006
    10  C    0.000015  -0.000018   0.000509  -0.000001   0.000001   0.000001
    11  H    0.000000  -0.000000   0.000002  -0.000000   0.000000   0.000000
    12  N    0.000048   0.000001  -0.000003   0.000003  -0.000230  -0.000000
    13  N   -0.000065   0.000003  -0.000208   0.000001  -0.000003  -0.000000
    14  B    0.000000  -0.000002   0.000015  -0.000002   0.000022   0.000000
    15  F   -0.000000  -0.000000  -0.000000   0.000000   0.000000   0.000000
    16  F   -0.000000   0.000000   0.000000  -0.000000  -0.000000   0.000000
    17  C    0.252104   0.078089  -0.073143   0.078335  -0.073297  -0.164506
    18  C    0.065631   0.319347   0.458726  -0.118957   0.012717   0.110994
    19  C    5.051772  -0.118263   0.012637   0.320142   0.459320   0.110505
    20  C   -0.118263   5.255651  -0.054418   0.032857  -0.001989   0.209374
    21  H    0.012637  -0.054418   0.621388  -0.001977  -0.000140   0.013906
    22  C    0.320142   0.032857  -0.001977   5.255673  -0.054773   0.209363
    23  H    0.459320  -0.001989  -0.000140  -0.054773   0.621648   0.013957
    24  C    0.110505   0.209374   0.013906   0.209363   0.013957   5.124705
    25  H   -0.002218   0.460927  -0.011569   0.013981   0.000013  -0.073535
    26  H   -0.061080   0.014011   0.000013   0.461041  -0.011546  -0.073440
    27  H   -0.000385   0.001109  -0.001396   0.000012  -0.000013  -0.000030
    28  H   -0.000000   0.000000  -0.000001   0.000000  -0.000000  -0.000000
    29  H    0.003074   0.000013  -0.000014   0.000976  -0.001325  -0.000027
    30  H    0.000000   0.000000  -0.000000   0.000000  -0.000001  -0.000000
    31  N    0.006398  -0.096784  -0.000079  -0.096775  -0.000080   0.469120
    32  H    0.000473   0.009647   0.000009  -0.021747  -0.000014  -0.004910
    33  H   -0.000457  -0.021779  -0.000015   0.009688   0.000008  -0.004850
              25         26         27         28         29         30
     1  C   -0.000002  -0.000011  -0.000247   0.000042  -0.032327   0.003180
     2  C   -0.000001   0.000000  -0.033019   0.003175  -0.000286   0.000044
     3  C   -0.000259  -0.000253  -0.017172  -0.000454  -0.017592  -0.000451
     4  C   -0.000000  -0.000010  -0.000000  -0.000000   0.445852   0.009324
     5  C    0.000000  -0.000000   0.000000   0.000000  -0.057057  -0.049254
     6  C    0.000000   0.000000  -0.000000   0.000006   0.010323   0.426514
     7  H   -0.000000  -0.000000  -0.000000  -0.000000  -0.004654  -0.003325
     8  C    0.000000   0.000000   0.010335   0.426127  -0.000000   0.000007
     9  C   -0.000013  -0.000000   0.446306   0.009313   0.000000  -0.000000
    10  C   -0.000000  -0.000000  -0.056848  -0.049027   0.000000   0.000000
    11  H   -0.000000  -0.000000  -0.004696  -0.003316  -0.000000  -0.000000
    12  N   -0.000000  -0.000000  -0.000013   0.000158   0.004415  -0.029526
    13  N   -0.000000  -0.000000   0.004381  -0.029421  -0.000013   0.000156
    14  B   -0.000000  -0.000000   0.000226   0.000995   0.000235   0.000824
    15  F    0.000000  -0.000000   0.000001   0.000121   0.000001   0.000060
    16  F   -0.000000   0.000000   0.000001   0.001068   0.000001   0.001234
    17  C    0.014885   0.014827   0.003477   0.000003   0.004123   0.000002
    18  C   -0.060961  -0.002264   0.003310   0.000000  -0.000399  -0.000000
    19  C   -0.002218  -0.061080  -0.000385  -0.000000   0.003074   0.000000
    20  C    0.460927   0.014011   0.001109   0.000000   0.000013   0.000000
    21  H   -0.011569   0.000013  -0.001396  -0.000001  -0.000014  -0.000000
    22  C    0.013981   0.461041   0.000012   0.000000   0.000976   0.000000
    23  H    0.000013  -0.011546  -0.000013  -0.000000  -0.001325  -0.000001
    24  C   -0.073535  -0.073440  -0.000030  -0.000000  -0.000027  -0.000000
    25  H    0.628762  -0.000156   0.000029  -0.000000  -0.000001  -0.000000
    26  H   -0.000156   0.628630  -0.000001  -0.000000   0.000025  -0.000000
    27  H    0.000029  -0.000001   0.592179  -0.000109  -0.000000  -0.000000
    28  H   -0.000000  -0.000000  -0.000109   0.551168  -0.000000  -0.000000
    29  H   -0.000001   0.000025  -0.000000  -0.000000   0.591893  -0.000110
    30  H   -0.000000  -0.000000  -0.000000  -0.000000  -0.000110   0.551745
    31  N   -0.009138  -0.009163  -0.000000   0.000000  -0.000001   0.000000
    32  H   -0.000231   0.004171  -0.000000   0.000000  -0.000000  -0.000000
    33  H    0.004156  -0.000232  -0.000000   0.000000   0.000000  -0.000000
              31         32         33
     1  C   -0.000000   0.000000   0.000000
     2  C   -0.000000  -0.000000  -0.000000
     3  C    0.000010   0.000000   0.000000
     4  C    0.000000  -0.000000  -0.000000
     5  C    0.000000  -0.000000  -0.000000
     6  C   -0.000000   0.000000   0.000000
     7  H   -0.000000   0.000000   0.000000
     8  C   -0.000000   0.000000  -0.000000
     9  C    0.000000   0.000000   0.000000
    10  C    0.000000   0.000000   0.000000
    11  H   -0.000000  -0.000000  -0.000000
    12  N    0.000000  -0.000000  -0.000000
    13  N    0.000000  -0.000000  -0.000000
    14  B    0.000000  -0.000000  -0.000000
    15  F    0.000000   0.000000  -0.000000
    16  F    0.000000  -0.000000   0.000000
    17  C   -0.000253  -0.000008  -0.000012
    18  C    0.006392  -0.000424   0.000515
    19  C    0.006398   0.000473  -0.000457
    20  C   -0.096784   0.009647  -0.021779
    21  H   -0.000079   0.000009  -0.000015
    22  C   -0.096775  -0.021747   0.009688
    23  H   -0.000080  -0.000014   0.000008
    24  C    0.469120  -0.004910  -0.004850
    25  H   -0.009138  -0.000231   0.004156
    26  H   -0.009163   0.004171  -0.000232
    27  H   -0.000000  -0.000000  -0.000000
    28  H    0.000000   0.000000   0.000000
    29  H   -0.000001  -0.000000   0.000000
    30  H    0.000000  -0.000000  -0.000000
    31  N    6.132459   0.371039   0.370848
    32  H    0.371039   0.501800  -0.025608
    33  H    0.370848  -0.025608   0.501897
 Mulliken charges:
               1
     1  C    0.005829
     2  C    0.006159
     3  C    0.170856
     4  C   -0.037414
     5  C   -0.085199
     6  C    0.103350
     7  H    0.056318
     8  C    0.104016
     9  C   -0.037162
    10  C   -0.084677
    11  H    0.056408
    12  N   -0.166374
    13  N   -0.167976
    14  B    0.196332
    15  F   -0.247045
    16  F   -0.249579
    17  C   -0.078770
    18  C   -0.021585
    19  C   -0.021253
    20  C   -0.098024
    21  H    0.046129
    22  C   -0.098055
    23  H    0.045675
    24  C    0.058450
    25  H    0.035335
    26  H    0.035438
    27  H    0.052566
    28  H    0.090151
    29  H    0.052875
    30  H    0.089578
    31  N   -0.143993
    32  H    0.165802
    33  H    0.165841
 Sum of Mulliken charges =  -0.00000
 Mulliken charges with hydrogens summed into heavy atoms:
               1
     1  C    0.005829
     2  C    0.006159
     3  C    0.170856
     4  C    0.015461
     5  C   -0.028881
     6  C    0.192927
     8  C    0.194168
     9  C    0.015404
    10  C   -0.028269
    12  N   -0.166374
    13  N   -0.167976
    14  B    0.196332
    15  F   -0.247045
    16  F   -0.249579
    17  C   -0.078770
    18  C    0.024544
    19  C    0.024421
    20  C   -0.062690
    22  C   -0.062616
    24  C    0.058450
    31  N    0.187650
 Electronic spatial extent (au):  <R**2>=           6240.5043
 Charge=             -0.0000 electrons
 Dipole moment (field-independent basis, Debye):
    X=            -10.6960    Y=              0.8010    Z=              0.2888  Tot=             10.7298
 Quadrupole moment (field-independent basis, Debye-Ang):
   XX=            -97.2900   YY=            -98.4370   ZZ=           -123.8513
   XY=             -4.4669   XZ=             -5.6591   YZ=             -3.8627
 Traceless Quadrupole moment (field-independent basis, Debye-Ang):
   XX=              9.2361   YY=              8.0892   ZZ=            -17.3252
   XY=             -4.4669   XZ=             -5.6591   YZ=             -3.8627
 Octapole moment (field-independent basis, Debye-Ang**2):
  XXX=           -300.9012  YYY=              1.7624  ZZZ=              2.2261  XYY=             41.0258
  XXY=             30.6209  XXZ=             26.6632  XZZ=            -18.0578  YZZ=             -0.6126
  YYZ=             -1.8843  XYZ=             24.9602
 Hexadecapole moment (field-independent basis, Debye-Ang**3):
 XXXX=          -4067.0045 YYYY=          -1885.3333 ZZZZ=           -359.7875 XXXY=           -187.9898
 XXXZ=           -190.5881 YYYX=             -6.2708 YYYZ=             24.2498 ZZZX=             -8.6065
 ZZZY=            -24.2023 XXYY=          -1109.8338 XXZZ=           -992.1465 YYZZ=           -451.8021
 XXYZ=            -89.7936 YYXZ=             -1.5453 ZZXY=              0.3530
 N-N= 1.583869891010D+03 E-N=-5.423021539807D+03  KE= 9.571236590529D+02
 Unable to Open any file for archive entry.
 1\1\GINC-X1003C2S6B1N0\SP\RwB97XD\def2SVP\C15H12B1F2N3\1008721\10-Oct-
 2025\0\\# wb97xd/def2svp geom=check guess=read SCRF=(SMD, solvent=etha
 nol, NonEq=Read)\\BDP-NH2_ethanol_wb97xd_wb97xd_wb97xd\\0,1\C,0,0.6287
 47,-1.207699,-0.100327\C,0,0.637675,1.217777,0.044253\C,0,-0.104406,0.
 007065,-0.014515\C,0,0.175765,-2.555915,-0.268033\C,0,1.303661,-3.3579
 8,-0.328179\C,0,2.426854,-2.505904,-0.206688\H,0,1.34443,-4.438454,-0.
 455833\C,0,2.448672,2.501594,0.101538\C,0,0.197448,2.578395,0.13595\C,
 0,1.332941,3.370614,0.163825\H,0,1.384098,4.456209,0.229094\N,0,2.0225
 88,-1.231605,-0.071301\N,0,2.032717,1.225927,0.033863\B,0,2.954668,-0.
 010807,0.062539\F,0,3.664913,-0.061405,1.267535\F,0,3.863752,0.02865,-
 0.997517\C,0,-1.57761,0.00708,-0.002447\C,0,-2.319858,0.82064,-0.87632
 9\C,0,-2.297586,-0.811772,0.885319\C,0,-3.708003,0.818467,-0.868094\H,
 0,-1.798056,1.457602,-1.595108\C,0,-3.685477,-0.820394,0.903372\H,0,-1
 .756649,-1.443112,1.595051\C,0,-4.424897,-0.00519,0.02299\H,0,-4.25678
 5,1.455808,-1.56661\H,0,-4.216156,-1.460461,1.613343\H,0,-0.839741,2.9
 0195,0.182631\H,0,3.510429,2.74964,0.114555\H,0,-0.864498,-2.862926,-0
 .349288\H,0,3.486166,-2.763868,-0.219826\N,0,-5.796577,-0.045764,0.002
 584\H,0,-6.261598,-0.422148,0.8207\H,0,-6.277611,0.738017,-0.423399\\V
 ersion=ES64L-G16RevC.01\State=1-A\HF=-966.8195774\RMSD=7.009e-09\Dipol
 e=-4.2081142,0.3151359,0.1136095\Quadrupole=6.8667835,6.0140879,-12.88
 08714,-3.3210351,-4.2074002,-2.8718046\PG=C01 [X(C15H12B1F2N3)]\\@
 The archive entry for this job was punched.


 THE HURRIEDER I GO, THE BEHINDER I GET.
 Job cpu time:       0 days  0 hours 22 minutes  4.1 seconds.
 Elapsed time:       0 days  0 hours  0 minutes 44.0 seconds.
 File lengths (MBytes):  RWF=    489 Int=      0 D2E=      0 Chk=     25 Scr=      1
 Normal termination of Gaussian 16 at Fri Oct 10 16:53:31 2025.
