 Entering Gaussian System, Link 0=g16
 Initial command:
 /home/users/sutd/1008721/g16/l1.exe "/home/users/sutd/1008721/scratch/g16/scratch/Gau-4162063.inp" -scrdir="/home/users/sutd/1008721/scratch/g16/scratch/"
 Entering Link 1 = /home/users/sutd/1008721/g16/l1.exe PID=   4162064.
  
 Copyright (c) 1988-2019, Gaussian, Inc.  All Rights Reserved.
  
 This is part of the Gaussian(R) 16 program.  It is based on
 the Gaussian(R) 09 system (copyright 2009, Gaussian, Inc.),
 the Gaussian(R) 03 system (copyright 2003, Gaussian, Inc.),
 the Gaussian(R) 98 system (copyright 1998, Gaussian, Inc.),
 the Gaussian(R) 94 system (copyright 1995, Gaussian, Inc.),
 the Gaussian 92(TM) system (copyright 1992, Gaussian, Inc.),
 the Gaussian 90(TM) system (copyright 1990, Gaussian, Inc.),
 the Gaussian 88(TM) system (copyright 1988, Gaussian, Inc.),
 the Gaussian 86(TM) system (copyright 1986, Carnegie Mellon
 University), and the Gaussian 82(TM) system (copyright 1983,
 Carnegie Mellon University). Gaussian is a federally registered
 trademark of Gaussian, Inc.
  
 This software contains proprietary and confidential information,
 including trade secrets, belonging to Gaussian, Inc.
  
 This software is provided under written license and may be
 used, copied, transmitted, or stored only in accord with that
 written license.
  
 The following legend is applicable only to US Government
 contracts under FAR:
  
                    RESTRICTED RIGHTS LEGEND
  
 Use, reproduction and disclosure by the US Government is
 subject to restrictions as set forth in subparagraphs (a)
 and (c) of the Commercial Computer Software - Restricted
 Rights clause in FAR 52.227-19.
  
 Gaussian, Inc.
 340 Quinnipiac St., Bldg. 40, Wallingford CT 06492
  
  
 ---------------------------------------------------------------
 Warning -- This program may not be used in any manner that
 competes with the business of Gaussian, Inc. or will provide
 assistance to any competitor of Gaussian, Inc.  The licensee
 of this program is prohibited from giving any competitor of
 Gaussian, Inc. access to this program.  By using this program,
 the user acknowledges that Gaussian, Inc. is engaged in the
 business of creating and licensing software in the field of
 computational chemistry and represents and warrants to the
 licensee that it is not a competitor of Gaussian, Inc. and that
 it will not use this program in any manner prohibited above.
 ---------------------------------------------------------------
  

 Cite this work as:
 Gaussian 16, Revision C.01,
 M. J. Frisch, G. W. Trucks, H. B. Schlegel, G. E. Scuseria, 
 M. A. Robb, J. R. Cheeseman, G. Scalmani, V. Barone, 
 G. A. Petersson, H. Nakatsuji, X. Li, M. Caricato, A. V. Marenich, 
 J. Bloino, B. G. Janesko, R. Gomperts, B. Mennucci, H. P. Hratchian, 
 J. V. Ortiz, A. F. Izmaylov, J. L. Sonnenberg, D. Williams-Young, 
 F. Ding, F. Lipparini, F. Egidi, J. Goings, B. Peng, A. Petrone, 
 T. Henderson, D. Ranasinghe, V. G. Zakrzewski, J. Gao, N. Rega, 
 G. Zheng, W. Liang, M. Hada, M. Ehara, K. Toyota, R. Fukuda, 
 J. Hasegawa, M. Ishida, T. Nakajima, Y. Honda, O. Kitao, H. Nakai, 
 T. Vreven, K. Throssell, J. A. Montgomery, Jr., J. E. Peralta, 
 F. Ogliaro, M. J. Bearpark, J. J. Heyd, E. N. Brothers, K. N. Kudin, 
 V. N. Staroverov, T. A. Keith, R. Kobayashi, J. Normand, 
 K. Raghavachari, A. P. Rendell, J. C. Burant, S. S. Iyengar, 
 J. Tomasi, M. Cossi, J. M. Millam, M. Klene, C. Adamo, R. Cammi, 
 J. W. Ochterski, R. L. Martin, K. Morokuma, O. Farkas, 
 J. B. Foresman, and D. J. Fox, Gaussian, Inc., Wallingford CT, 2019.
 
 ******************************************
 Gaussian 16:  ES64L-G16RevC.01  3-Jul-2019
                10-Oct-2025 
 ******************************************
 %nprocshared=32
 Will use up to   32 processors via shared memory.
 %mem=64GB
 %chk=06BDP-NH2_ethanol_m062x_m062x_m062x.chk
 ----------------------------------------------------------------------
 # td=(nstates=3,root=1) scrf=(smd,solvent=ethanol,correctedlr,noneq=sa
 ve) def2svp m062x
 ----------------------------------------------------------------------
 1/30=1,38=1,172=1/1;
 2/12=2,17=6,18=5,40=1/2;
 3/5=43,7=101,11=9,25=1,30=1,70=9032201,71=1,72=4,74=-55/1,2,3,8;
 4//1;
 5/5=2,38=5,53=4/2;
 8/6=1,10=1,107=1,108=3/1;
 9/8=1,15=1,41=3,42=1,70=2,73=22/14;
 10/5=4,13=10,28=1,74=20/2;
 6/7=2,8=2,9=2,10=2,22=-1/1;
 99/5=1,9=1/99;
 ---------------------------------
 BDP-NH2_ethanol_m062x_m062x_m062x
 ---------------------------------
 Symbolic Z-matrix:
 Charge =  0 Multiplicity = 1
 C                     0.61698   1.23324   0.01228 
 C                     0.61593  -1.23271   0.01483 
 C                    -0.10177   0.00056   0.00634 
 C                     0.16159   2.56131   0.0257 
 C                     1.31327   3.38418   0.0342 
 C                     2.41347   2.53928   0.02545 
 H                     1.34369   4.47141   0.04685 
 C                     2.41131  -2.54027   0.0296 
 C                     0.1594   -2.56038   0.03 
 C                     1.31039  -3.38421   0.03953 
 H                     1.33989  -4.47146   0.05342 
 N                     1.99505   1.24131   0.01221 
 N                     1.99399  -1.24196   0.01471 
 B                     2.90916  -0.00075  -0.02742 
 F                     3.68261  -0.00227  -1.19856 
 F                     3.78646  -0.00001   1.06654 
 C                    -1.55812   0.00107   0.0007 
 C                    -2.29387   0.00705   1.23029 
 C                    -2.28275  -0.00554  -1.23549 
 C                    -3.65608   0.00731   1.23756 
 H                    -1.73832   0.01187   2.16906 
 C                    -3.64471  -0.00654  -1.25488 
 H                    -1.71875  -0.01026  -2.16919 
 C                    -4.37319   0.00025  -0.01199 
 H                    -4.22538   0.01252   2.16769 
 H                    -4.20614  -0.01224  -2.18981 
 H                    -0.88388  -2.87026   0.03586 
 H                     3.47284  -2.7821    0.03157 
 H                    -0.88143   2.87209   0.03145 
 H                     3.47521   2.7802    0.02748 
 N                    -5.68585  -0.00003  -0.01854 
 H                    -6.20477  -0.00504  -0.8949 
 H                    -6.21377   0.00476   0.85244 
 
                          Input orientation:                          
 ---------------------------------------------------------------------
 Center     Atomic      Atomic             Coordinates (Angstroms)
 Number     Number       Type             X           Y           Z
 ---------------------------------------------------------------------
      1          6           0        0.616978    1.233235    0.012277
      2          6           0        0.615929   -1.232712    0.014834
      3          6           0       -0.101766    0.000560    0.006335
      4          6           0        0.161586    2.561311    0.025704
      5          6           0        1.313266    3.384175    0.034202
      6          6           0        2.413470    2.539284    0.025445
      7          1           0        1.343689    4.471411    0.046847
      8          6           0        2.411308   -2.540272    0.029598
      9          6           0        0.159404   -2.560382    0.029997
     10          6           0        1.310387   -3.384214    0.039534
     11          1           0        1.339885   -4.471460    0.053419
     12          7           0        1.995048    1.241308    0.012210
     13          7           0        1.993991   -1.241956    0.014709
     14          5           0        2.909156   -0.000750   -0.027424
     15          9           0        3.682606   -0.002274   -1.198555
     16          9           0        3.786462   -0.000006    1.066540
     17          6           0       -1.558117    0.001070    0.000698
     18          6           0       -2.293871    0.007045    1.230285
     19          6           0       -2.282750   -0.005539   -1.235490
     20          6           0       -3.656080    0.007309    1.237558
     21          1           0       -1.738324    0.011871    2.169059
     22          6           0       -3.644712   -0.006536   -1.254882
     23          1           0       -1.718745   -0.010258   -2.169186
     24          6           0       -4.373185    0.000251   -0.011987
     25          1           0       -4.225377    0.012517    2.167689
     26          1           0       -4.206137   -0.012235   -2.189806
     27          1           0       -0.883880   -2.870262    0.035864
     28          1           0        3.472841   -2.782096    0.031569
     29          1           0       -0.881431    2.872089    0.031451
     30          1           0        3.475208    2.780204    0.027481
     31          7           0       -5.685847   -0.000030   -0.018537
     32          1           0       -6.204775   -0.005039   -0.894903
     33          1           0       -6.213769    0.004755    0.852435
 ---------------------------------------------------------------------
                    Distance matrix (angstroms):
                    1          2          3          4          5
     1  C    0.000000
     2  C    2.465949   0.000000
     3  C    1.426925   1.426926   0.000000
     4  C    1.404047   3.821146   2.574330   0.000000
     5  C    2.260938   4.669293   3.667689   1.415466   0.000000
     6  C    2.221108   4.178423   3.573779   2.251992   1.387215
     7  H    3.318899   5.750450   4.698882   2.246396   1.087735
     8  C    4.178430   2.221107   3.573781   5.575609   6.025346
     9  C    3.821154   1.404049   2.574334   5.121695   6.055508
    10  C    4.669303   2.260938   3.667693   6.055510   6.768392
    11  H    5.750464   3.318899   4.698887   7.130850   7.855704
    12  N    1.378094   2.832446   2.436415   2.259242   2.248820
    13  N    2.832444   1.378093   2.436414   4.221690   4.675987
    14  B    2.603531   2.603537   3.011112   3.757143   3.742777
    15  F    3.520039   3.520057   3.971554   4.524197   4.312945
    16  F    3.560615   3.560608   4.030180   4.558883   4.316839
    17  C    2.499881   2.499779   1.456362   3.084289   4.437495
    18  C    3.385281   3.388400   2.510661   3.742267   5.084000
    19  C    3.391151   3.386976   2.509753   3.762195   5.102314
    20  C    4.611207   4.613325   3.761529   4.750378   6.127454
    21  H    3.419194   3.425227   2.712162   3.834485   5.024167
    22  C    4.615704   4.611805   3.760743   4.766722   6.143306
    23  H    3.429382   3.422724   2.710651   3.868611   5.056697
    24  C    5.140288   5.139278   4.271458   5.208128   6.617311
    25  H    5.439150   5.442759   4.655724   5.507258   6.826156
    26  H    5.446357   5.440802   4.655004   5.532506   6.851688
    27  H    4.369419   2.220684   2.975600   5.531283   6.629135
    28  H    4.927394   3.250049   4.530080   6.286210   6.533504
    29  H    2.220684   4.369411   2.975599   1.088348   2.253649
    30  H    3.250050   4.927386   4.530078   3.320844   2.244731
    31  N    6.422421   6.421293   5.584136   6.383956   7.774523
    32  H    6.992325   6.989764   6.169196   6.925621   8.298852
    33  H    6.991004   6.991257   6.170290   6.918426   8.291335
                    6          7          8          9         10
     6  C    0.000000
     7  H    2.208620   0.000000
     8  C    5.079558   7.092518   0.000000
     9  C    5.575610   7.130843   2.251994   0.000000
    10  C    6.025348   7.855699   1.387214   1.415469   0.000000
    11  H    7.092524   8.942874   2.208620   2.246398   1.087735
    12  N    1.363816   3.295305   3.804461   4.221700   4.675998
    13  N    3.804452   5.750347   1.363818   2.259246   2.248822
    14  B    2.588488   4.738821   2.588489   3.757146   3.742776
    15  F    3.093283   5.199559   3.092894   4.523959   4.312517
    16  F    3.068710   5.196199   3.069079   4.559111   4.317239
    17  C    4.713454   5.329780   4.713342   3.084116   4.437338
    18  C    5.479319   5.879025   5.483537   3.748457   5.090108
    19  C    5.488220   5.902417   5.482654   3.754037   5.094287
    20  C    6.687268   6.807620   6.690481   4.754909   6.132168
    21  H    5.312277   5.821519   5.320730   3.846225   5.036160
    22  C    6.694924   6.828664   6.689177   4.758607   6.134919
    23  H    5.328393   5.862991   5.319113   3.855773   5.043576
    24  C    7.246156   7.257919   7.244676   5.206051   6.615153
    25  H    7.419437   7.442728   7.425211   5.515056   6.834582
    26  H    7.432145   7.477049   7.423429   5.520736   6.839023
    27  H    6.335283   7.672180   3.311676   1.088348   2.253657
    28  H    5.425808   7.559556   1.088731   3.320847   2.244731
    29  H    3.311671   2.740297   6.335281   5.531282   6.629137
    30  H    1.088731   2.721016   5.425804   6.286209   6.533502
    31  N    8.488167   8.331413   8.486405   6.381592   7.771960
    32  H    9.032982   8.826370   9.028787   6.920115   8.292747
    33  H    9.029784   8.815620   9.030292   6.919080   8.292095
                   11         12         13         14         15
    11  H    0.000000
    12  N    5.750361   0.000000
    13  N    3.295307   2.483265   0.000000
    14  B    4.738818   1.542683   1.542691   0.000000
    15  F    5.198981   2.420806   2.420794   1.403487   0.000000
    16  F    5.196735   2.421082   2.421103   1.402292   2.267476
    17  C    5.329608   3.763417   3.763347   4.467362   5.376188
    18  C    5.886103   4.626223   4.628541   5.352885   6.451173
    19  C    5.893150   4.627196   4.624093   5.330604   5.965471
    20  C    6.813312   5.912654   5.914332   6.685998   7.732467
    21  H    5.835371   4.483478   4.488149   5.140405   6.381811
    22  C    6.818607   5.913504   5.910423   6.667824   7.327536
    23  H    5.847864   4.485216   4.480054   5.099481   5.487876
    24  C    7.255318   6.488081   6.487274   7.282357   8.142710
    25  H    7.453075   6.696992   6.699967   7.464600   8.594650
    26  H    7.461575   6.698876   6.694303   7.436627   7.950783
    27  H    2.740305   5.019342   3.306655   4.756598   5.531902
    28  H    2.721016   4.286260   2.135255   2.838504   3.047067
    29  H    7.672186   3.306652   5.019332   4.756598   5.532207
    30  H    7.559557   2.135254   4.286250   2.838509   3.047681
    31  N    8.328252   7.780618   7.779678   8.595008   9.442476
    32  H    8.818737   8.343460   8.341290   9.155123   9.892043
    33  H    8.816610   8.343843   8.344064   9.165257  10.106673
                   16         17         18         19         20
    16  F    0.000000
    17  C    5.449821   0.000000
    18  C    6.082542   1.432918   0.000000
    19  C    6.491125   1.432933   2.465832   0.000000
    20  C    7.444510   2.435428   1.362228   2.828810   0.000000
    21  H    5.633733   2.175863   1.090849   3.447848   2.132019
    22  C    7.785332   2.435245   2.828606   1.362100   2.492504
    23  H    6.385713   2.175851   3.447821   1.090831   3.919117
    24  C    8.230617   2.815097   2.422155   2.422171   1.440712
    25  H    8.087166   3.436605   2.146968   3.918642   1.090537
    26  H    8.630503   3.436640   3.918438   2.147133   3.471278
    27  H    5.577881   2.949641   3.419592   3.432174   4.172478
    28  H    2.984887   5.749566   6.516993   6.514717   7.749626
    29  H    5.577595   2.949847   3.411842   3.442322   4.166574
    30  H    2.984307   5.749666   6.513019   6.519934   7.746515
    31  N    9.534256   4.127775   3.614569   3.614149   2.387003
    32  H   10.181950   4.732184   4.451038   3.936785   3.323159
    33  H   10.002524   4.732924   3.938068   4.451118   2.586523
                   21         22         23         24         25
    21  H    0.000000
    22  C    3.918932   0.000000
    23  H    4.338346   2.131974   0.000000
    24  C    3.420466   1.440662   3.420478   0.000000
    25  H    2.487053   3.471531   5.009212   2.184716   0.000000
    26  H    5.009030   1.090556   2.487478   2.184252   4.357608
    27  H    3.686094   4.182003   3.706598   4.518560   4.901091
    28  H    6.287397   7.747145   6.283230   8.324871   8.463772
    29  H    3.672122   4.192476   3.721804   4.521248   4.891078
    30  H    6.279406   7.752653   6.291993   8.326282   8.458108
    31  N    4.513165   2.386383   4.512571   1.312678   2.629204
    32  H    5.416395   2.585248   4.663506   2.033295   3.646614
    33  H    4.665100   3.322795   5.416240   2.033469   2.384042
                   26         27         28         29         30
    26  H    0.000000
    27  H    4.915213   0.000000
    28  H    8.460103   4.357615   0.000000
    29  H    4.930211   5.742353   7.136490   0.000000
    30  H    8.468597   7.136490   5.562302   4.357610   0.000000
    31  N    2.627565   5.594647   9.572041   5.597676   9.573753
    32  H    2.381466   6.114553  10.110719   6.121600  10.114862
    33  H    3.645011   6.110665  10.112901   6.109783  10.112366
                   31         32         33
    31  N    0.000000
    32  H    1.018493   0.000000
    33  H    1.018487   1.747389   0.000000
 Stoichiometry    C15H12BF2N3
 Framework group  C1[X(C15H12BF2N3)]
 Deg. of freedom    93
 Full point group                 C1      NOp   1
 Largest Abelian subgroup         C1      NOp   1
 Largest concise Abelian subgroup C1      NOp   1
                         Standard orientation:                         
 ---------------------------------------------------------------------
 Center     Atomic      Atomic             Coordinates (Angstroms)
 Number     Number       Type             X           Y           Z
 ---------------------------------------------------------------------
      1          6           0        0.616978   -1.233235   -0.012277
      2          6           0        0.615929    1.232712   -0.014834
      3          6           0       -0.101766   -0.000560   -0.006335
      4          6           0        0.161586   -2.561311   -0.025704
      5          6           0        1.313266   -3.384175   -0.034202
      6          6           0        2.413470   -2.539284   -0.025445
      7          1           0        1.343689   -4.471411   -0.046847
      8          6           0        2.411308    2.540272   -0.029598
      9          6           0        0.159404    2.560382   -0.029997
     10          6           0        1.310387    3.384214   -0.039534
     11          1           0        1.339885    4.471460   -0.053419
     12          7           0        1.995048   -1.241308   -0.012210
     13          7           0        1.993991    1.241956   -0.014709
     14          5           0        2.909156    0.000750    0.027424
     15          9           0        3.682606    0.002274    1.198555
     16          9           0        3.786462    0.000006   -1.066540
     17          6           0       -1.558117   -0.001070   -0.000698
     18          6           0       -2.293871   -0.007045   -1.230285
     19          6           0       -2.282750    0.005539    1.235490
     20          6           0       -3.656080   -0.007309   -1.237558
     21          1           0       -1.738324   -0.011871   -2.169059
     22          6           0       -3.644712    0.006536    1.254882
     23          1           0       -1.718745    0.010258    2.169186
     24          6           0       -4.373185   -0.000251    0.011987
     25          1           0       -4.225377   -0.012517   -2.167689
     26          1           0       -4.206137    0.012235    2.189806
     27          1           0       -0.883880    2.870262   -0.035864
     28          1           0        3.472841    2.782096   -0.031569
     29          1           0       -0.881431   -2.872089   -0.031451
     30          1           0        3.475208   -2.780204   -0.027481
     31          7           0       -5.685847    0.000030    0.018537
     32          1           0       -6.204775    0.005039    0.894903
     33          1           0       -6.213769   -0.004755   -0.852435
 ---------------------------------------------------------------------
 Rotational constants (GHZ):           0.5726073           0.2130430           0.1702714
 Standard basis: def2SVP (5D, 7F)
 There are   375 symmetry adapted cartesian basis functions of A   symmetry.
 There are   354 symmetry adapted basis functions of A   symmetry.
   354 basis functions,   609 primitive gaussians,   375 cartesian basis functions
    73 alpha electrons       73 beta electrons
       nuclear repulsion energy      1586.0406990562 Hartrees.
 NAtoms=   33 NActive=   33 NUniq=   33 SFac= 1.00D+00 NAtFMM=   60 NAOKFM=F Big=F
 Integral buffers will be    131072 words long.
 Regular integral format.
 Two-electron integral symmetry is turned on.
 ------------------------------------------------------------------------------
 Polarizable Continuum Model (PCM)
 =================================
 Model                : PCM.
 Atomic radii         : SMD-Coulomb.
 Polarization charges : Total charges.
 Charge compensation  : None.
 Solution method      : On-the-fly selection.
 Cavity type          : VdW (van der Waals Surface) (Alpha=1.000).
 Cavity algorithm     : GePol (No added spheres)
                        Default sphere list used, NSphG=   33.
                        Lebedev-Laikov grids with approx.  5.0 points / Ang**2.
                        Smoothing algorithm: York/Karplus (Gamma=1.0000).
                        Polarization charges: spherical gaussians, with
                                              point-specific exponents (IZeta= 3).
                        Self-potential: point-specific (ISelfS= 7).
                        Self-field    : sphere-specific E.n sum rule (ISelfD= 2).
 1st derivatives      : Analytical E(r).r(x)/FMM algorithm (CHGder, D1EAlg=3).
                        Cavity 1st derivative terms included.
 Solvent              : Ethanol, Eps=  24.852000 Eps(inf)=   1.852593
 ------------------------------------------------------------------------------
 ------------------------------------------------------------------------------
 Atomic radii for non-electrostatic terms: SMD-CDS.
 ------------------------------------------------------------------------------
 Nuclear repulsion after PCM non-electrostatic terms =     1586.0400422447 Hartrees.
 One-electron integrals computed using PRISM.
   1 Symmetry operations used in ECPInt.
 ECPInt:  NShTT=   13203 NPrTT=   49137 LenC2=   11985 LenP2D=   31047.
 LDataN:  DoStor=T MaxTD1= 4 Len=   56
 NBasis=   354 RedAO= T EigKep=  2.88D-04  NBF=   354
 NBsUse=   354 1.00D-06 EigRej= -1.00D+00 NBFU=   354
 ExpMin= 8.36D-02 ExpMax= 2.89D+03 ExpMxC= 4.35D+02 IAcc=3 IRadAn=         5 AccDes= 0.00D+00
 Harris functional with IExCor= 1009 and IRadAn=       5 diagonalized for initial guess.
 HarFok:  IExCor= 1009 AccDes= 0.00D+00 IRadAn=         5 IDoV= 1 UseB2=F ITyADJ=14
 ICtDFT=  3500011 ScaDFX=  1.000000  1.000000  1.000000  1.000000
 FoFCou: FMM=F IPFlag=           0 FMFlag=      100000 FMFlg1=           0
         NFxFlg=           0 DoJE=T BraDBF=F KetDBF=T FulRan=T
         wScrn=  0.000000 ICntrl=       500 IOpCl=  0 I1Cent=   200000004 NGrid=           0
         NMat0=    1 NMatS0=      1 NMatT0=    0 NMatD0=    1 NMtDS0=    0 NMtDT0=    0
 Petite list used in FoFCou.
 Requested convergence on RMS density matrix=1.00D-08 within 128 cycles.
 Requested convergence on MAX density matrix=1.00D-06.
 Requested convergence on             energy=1.00D-06.
 No special actions if energy rises.
 Inv3:  Mode=1 IEnd=    20467632.
 Iteration    1 A*A^-1 deviation from unit magnitude is 4.66D-15 for   2611.
 Iteration    1 A*A^-1 deviation from orthogonality  is 2.26D-15 for   2294    419.
 Iteration    1 A^-1*A deviation from unit magnitude is 4.66D-15 for   2611.
 Iteration    1 A^-1*A deviation from orthogonality  is 9.64D-14 for   1188   1126.
 Error on total polarization charges =  0.03869
 SCF Done:  E(RM062X) =  -966.730846054     A.U. after   13 cycles
            NFock= 13  Conv=0.53D-08     -V/T= 2.0098
 SMD-CDS (non-electrostatic) energy       (kcal/mol) =      -0.41
 (included in total energy above)
 DoSCS=F DFT=T ScalE2(SS,OS)=  1.000000  1.000000
 ExpMin= 8.36D-02 ExpMax= 2.89D+03 ExpMxC= 4.35D+02 IAcc=3 IRadAn=         5 AccDes= 0.00D+00
 HarFok:  IExCor=  205 AccDes= 0.00D+00 IRadAn=         5 IDoV=-2 UseB2=F ITyADJ=14
 ICtDFT= 12500011 ScaDFX=  1.000000  1.000000  1.000000  1.000000
 GSVD:  LWork=        -609 too small for GESVD, short by        2520 words or        2520 for optimal perf.
 Range of M.O.s used for correlation:    22   354
 NBasis=   354 NAE=    73 NBE=    73 NFC=    21 NFV=     0
 NROrb=    333 NOA=    52 NOB=    52 NVA=   281 NVB=   281

 **** Warning!!: The largest alpha MO coefficient is  0.13842000D+02

 Keep R1, R2, and R3 ints in memory in canonical form, NReq=6183477328.
 NEqPCM:  Using equilibrium solvation (IEInf=0, Eps=  24.8520, EpsInf=   1.8526)
 Orbital symmetries:
       Occupied  (A) (A) (A) (A) (A) (A) (A) (A) (A) (A) (A) (A)
                 (A) (A) (A) (A) (A) (A) (A) (A) (A) (A) (A) (A)
                 (A) (A) (A) (A) (A) (A) (A) (A) (A) (A) (A) (A)
                 (A) (A) (A) (A) (A) (A) (A) (A) (A) (A) (A) (A)
                 (A) (A) (A) (A) (A) (A) (A) (A) (A) (A) (A) (A)
                 (A) (A) (A) (A) (A) (A) (A) (A) (A) (A) (A) (A)
                 (A)
       Virtual   (A) (A) (A) (A) (A) (A) (A) (A) (A) (A) (A) (A)
                 (A) (A) (A) (A) (A) (A) (A) (A) (A) (A) (A) (A)
                 (A) (A) (A) (A) (A) (A) (A) (A) (A) (A) (A) (A)
                 (A) (A) (A) (A) (A) (A) (A) (A) (A) (A) (A) (A)
                 (A) (A) (A) (A) (A) (A) (A) (A) (A) (A) (A) (A)
                 (A) (A) (A) (A) (A) (A) (A) (A) (A) (A) (A) (A)
                 (A) (A) (A) (A) (A) (A) (A) (A) (A) (A) (A) (A)
                 (A) (A) (A) (A) (A) (A) (A) (A) (A) (A) (A) (A)
                 (A) (A) (A) (A) (A) (A) (A) (A) (A) (A) (A) (A)
                 (A) (A) (A) (A) (A) (A) (A) (A) (A) (A) (A) (A)
                 (A) (A) (A) (A) (A) (A) (A) (A) (A) (A) (A) (A)
                 (A) (A) (A) (A) (A) (A) (A) (A) (A) (A) (A) (A)
                 (A) (A) (A) (A) (A) (A) (A) (A) (A) (A) (A) (A)
                 (A) (A) (A) (A) (A) (A) (A) (A) (A) (A) (A) (A)
                 (A) (A) (A) (A) (A) (A) (A) (A) (A) (A) (A) (A)
                 (A) (A) (A) (A) (A) (A) (A) (A) (A) (A) (A) (A)
                 (A) (A) (A) (A) (A) (A) (A) (A) (A) (A) (A) (A)
                 (A) (A) (A) (A) (A) (A) (A) (A) (A) (A) (A) (A)
                 (A) (A) (A) (A) (A) (A) (A) (A) (A) (A) (A) (A)
                 (A) (A) (A) (A) (A) (A) (A) (A) (A) (A) (A) (A)
                 (A) (A) (A) (A) (A) (A) (A) (A) (A) (A) (A) (A)
                 (A) (A) (A) (A) (A) (A) (A) (A) (A) (A) (A) (A)
                 (A) (A) (A) (A) (A) (A) (A) (A) (A) (A) (A) (A)
                 (A) (A) (A) (A) (A)
    12 initial guesses have been made.
 Convergence on wavefunction:    0.000001000000000
 Iteration     1 Dimension    12 NMult     0 NNew     12
 CISAX will form    12 AO SS matrices at one time.
 Iteration     2 Dimension    18 NMult    12 NNew      6
 Iteration     3 Dimension    24 NMult    18 NNew      6
 Iteration     4 Dimension    30 NMult    24 NNew      6
 Iteration     5 Dimension    36 NMult    30 NNew      6
 Iteration     6 Dimension    42 NMult    36 NNew      6
 Iteration     7 Dimension    48 NMult    42 NNew      6
 Iteration     8 Dimension    54 NMult    48 NNew      6
 Iteration     9 Dimension    60 NMult    54 NNew      6
 Iteration    10 Dimension    64 NMult    60 NNew      4
 Iteration    11 Dimension    66 NMult    64 NNew      2
 PCM Corrected Linear-Response:
 The state of interest is root number   1
 Excitation energy =    2.0503 eV, Total energy =  -966.655500668    
 Recompute the excitation energies using the linear response reaction field.
 Convergence on wavefunction:    0.000001000000000
 Iteration     1 Dimension     3 NMult     0 NNew      3
 Iteration     2 Dimension     9 NMult     3 NNew      6
 Iteration     3 Dimension    15 NMult     9 NNew      6
 Iteration     4 Dimension    21 NMult    15 NNew      6
 Iteration     5 Dimension    27 NMult    21 NNew      6
 Iteration     6 Dimension    33 NMult    27 NNew      6
 Iteration     7 Dimension    39 NMult    33 NNew      6
 Iteration     8 Dimension    45 NMult    39 NNew      6
 Iteration     9 Dimension    51 NMult    45 NNew      6
 Iteration    10 Dimension    55 NMult    51 NNew      4
 Iteration    11 Dimension    57 NMult    55 NNew      2
 Iteration    12 Dimension    59 NMult    57 NNew      2
 ***********************************************************************
 Excited states from <AA,BB:AA,BB> singles matrix:
 ***********************************************************************
 
 Ground to excited state transition densities written to RWF  633
 Ground to excited state transition electric dipole moments (Au):
       state          X           Y           Z        Dip. S.      Osc.
         1        -0.0226      0.0117      0.0002      0.0006      0.0000
         2        -0.0014      3.5044     -0.0030     12.2806      0.8046
         3        -0.0003      0.8587     -0.0008      0.7373      0.0669
 Ground to excited state transition velocity dipole moments (Au):
       state          X           Y           Z        Dip. S.      Osc.
         1         0.0017     -0.0009     -0.0000      0.0000      0.0000
         2         0.0001     -0.3447      0.0003      0.1188      0.8062
         3         0.0000     -0.1212      0.0001      0.0147      0.0720
 Ground to excited state transition magnetic dipole moments (Au):
       state          X           Y           Z
         1         0.1091     -0.0001     -0.0007
         2        -0.0059      0.0001      0.4226
         3         0.0006     -0.0014     -1.4572
 Ground to excited state transition velocity quadrupole moments (Au):
       state          XX          YY          ZZ          XY          XZ          YZ
         1        -0.0088      0.0042     -0.0004     -0.0027      0.0001     -0.0029
         2         0.0009     -0.0002     -0.0000     -1.0141      0.0008      0.0198
         3        -0.0001      0.0003     -0.0000      0.1894     -0.0002      0.0044
 <0|del|b> * <b|rxdel|0> + <0|del|b> * <b|delr+rdel|0>
 Rotatory Strengths (R) in cgs (10**-40 erg-esu-cm/Gauss)
       state          XX          YY          ZZ    R(velocity)    E-M Angle
         1         0.0008      0.8361      0.8819      0.5729       90.00
         2         0.2539      1.5242     -1.1789      0.1998       90.00
         3         0.0027     -0.4695      0.5211      0.0181       90.00
 1/2[<0|r|b>*<b|rxdel|0> + (<0|rxdel|b>*<b|r|0>)*]
 Rotatory Strengths (R) in cgs (10**-40 erg-esu-cm/Gauss)
       state          XX          YY          ZZ     R(length)
         1         1.7446      0.0007      0.0001      0.5818
         2        -0.0059     -0.2873      0.8916      0.1995
         3         0.0001      0.8540     -0.7984      0.0186
  1/2[<0|del|b>*<b|r|0> + (<0|r|b>*<b|del|0>)*] (Au)
       state          X           Y           Z        Dip. S.   Osc.(frdel)
         1        -0.0000     -0.0000     -0.0000      0.0000      0.0000
         2        -0.0000     -1.2081     -0.0000      1.2081      0.8054
         3        -0.0000     -0.1040     -0.0000      0.1040      0.0694

 Excitation energies and oscillator strengths:
 
 Excited State   1:      Singlet-A      2.0498 eV  604.85 nm  f=0.0000  <S**2>=0.000
      67 -> 74        -0.10850
      73 -> 74         0.69603
 This state for optimization and/or second-order correction.
 Total Energy, E(TD-HF/TD-DFT) =  -966.655516605    
 Copying the excited state density for this state as the 1-particle RhoCI density.
 
 Excited State   2:      Singlet-A      2.6742 eV  463.63 nm  f=0.8046  <S**2>=0.000
      72 -> 74         0.70141
 
 Excited State   3:      Singlet-A      3.7008 eV  335.02 nm  f=0.0669  <S**2>=0.000
      70 -> 74        -0.19768
      71 -> 74         0.67472
 SavETr:  write IOETrn=   770 NScale= 10 NData=  16 NLR=1 NState=    3 LETran=      64.
 NEqPCM:  Using equilibrium solvation (IEInf=0, Eps=  24.8520, EpsInf=   1.8526)
          Differentiating once with respect to electric field.
                with respect to dipole field.
          Electric field/nuclear overlap derivatives assumed to be zero.
          There are     1 degrees of freedom in the 1st order CPHF.  IDoFFX=0 NUNeed=     1.
 LinEq1:  Iter=  0 NonCon=     1 RMS=4.88D-03 Max=1.64D-01 NDo=     1
 AX will form     1 AO Fock derivatives at one time.
 LinEq1:  Iter=  1 NonCon=     1 RMS=1.77D-03 Max=1.41D-01 NDo=     1
 LinEq1:  Iter=  2 NonCon=     1 RMS=1.29D-03 Max=1.12D-01 NDo=     1
 LinEq1:  Iter=  3 NonCon=     1 RMS=4.64D-04 Max=2.97D-02 NDo=     1
 LinEq1:  Iter=  4 NonCon=     1 RMS=2.22D-04 Max=1.19D-02 NDo=     1
 LinEq1:  Iter=  5 NonCon=     1 RMS=9.03D-05 Max=3.23D-03 NDo=     1
 LinEq1:  Iter=  6 NonCon=     1 RMS=3.21D-05 Max=1.59D-03 NDo=     1
 LinEq1:  Iter=  7 NonCon=     1 RMS=1.55D-05 Max=5.34D-04 NDo=     1
 LinEq1:  Iter=  8 NonCon=     1 RMS=4.93D-06 Max=2.16D-04 NDo=     1
 LinEq1:  Iter=  9 NonCon=     1 RMS=1.75D-06 Max=6.34D-05 NDo=     1
 LinEq1:  Iter= 10 NonCon=     1 RMS=7.95D-07 Max=2.60D-05 NDo=     1
 LinEq1:  Iter= 11 NonCon=     1 RMS=3.00D-07 Max=1.30D-05 NDo=     1
 LinEq1:  Iter= 12 NonCon=     1 RMS=1.63D-07 Max=7.58D-06 NDo=     1
 LinEq1:  Iter= 13 NonCon=     1 RMS=7.56D-08 Max=4.33D-06 NDo=     1
 LinEq1:  Iter= 14 NonCon=     1 RMS=3.41D-08 Max=1.35D-06 NDo=     1
 LinEq1:  Iter= 15 NonCon=     1 RMS=1.49D-08 Max=8.37D-07 NDo=     1
 LinEq1:  Iter= 16 NonCon=     1 RMS=6.54D-09 Max=1.52D-07 NDo=     1
 LinEq1:  Iter= 17 NonCon=     1 RMS=1.86D-09 Max=6.57D-08 NDo=     1
 LinEq1:  Iter= 18 NonCon=     1 RMS=6.94D-10 Max=3.48D-08 NDo=     1
 LinEq1:  Iter= 19 NonCon=     1 RMS=3.76D-10 Max=2.36D-08 NDo=     1
 LinEq1:  Iter= 20 NonCon=     1 RMS=1.41D-10 Max=1.04D-08 NDo=     1
 LinEq1:  Iter= 21 NonCon=     1 RMS=5.08D-11 Max=2.23D-09 NDo=     1
 LinEq1:  Iter= 22 NonCon=     0 RMS=2.81D-11 Max=9.89D-10 NDo=     1
 Linear equations converged to 1.000D-10 1.000D-09 after    22 iterations.
 PCM Corrected Linear-Response - Equilibrium solvation:
 Corrected transition energy               =    1.0399          eV
 Total energy after correction             = -966.692632200     a.u.
 NEqPCM:  Using non-equilibrium solvation (IEInf=1, Eps=  24.8520, EpsInf=   1.8526)
 Inv3:  Mode=1 IEnd=    20467632.
 Iteration    1 A*A^-1 deviation from unit magnitude is 6.66D-15 for   2593.
 Iteration    1 A*A^-1 deviation from orthogonality  is 1.49D-15 for   1724   1258.
 Iteration    1 A^-1*A deviation from unit magnitude is 6.88D-15 for   2593.
 Iteration    1 A^-1*A deviation from orthogonality  is 1.93D-15 for   2604   2593.
 End of Minotr F.D. properties file   721 does not exist.
 End of Minotr F.D. properties file   722 does not exist.
 End of Minotr F.D. properties file   788 does not exist.

 **********************************************************************

            Population analysis using the CI Density.

 **********************************************************************

 Orbital symmetries:
       Occupied  (A) (A) (A) (A) (A) (A) (A) (A) (A) (A) (A) (A)
                 (A) (A) (A) (A) (A) (A) (A) (A) (A) (A) (A) (A)
                 (A) (A) (A) (A) (A) (A) (A) (A) (A) (A) (A) (A)
                 (A) (A) (A) (A) (A) (A) (A) (A) (A) (A) (A) (A)
                 (A) (A) (A) (A) (A) (A) (A) (A) (A) (A) (A) (A)
                 (A) (A) (A) (A) (A) (A) (A) (A) (A) (A) (A) (A)
                 (A)
       Virtual   (A) (A) (A) (A) (A) (A) (A) (A) (A) (A) (A) (A)
                 (A) (A) (A) (A) (A) (A) (A) (A) (A) (A) (A) (A)
                 (A) (A) (A) (A) (A) (A) (A) (A) (A) (A) (A) (A)
                 (A) (A) (A) (A) (A) (A) (A) (A) (A) (A) (A) (A)
                 (A) (A) (A) (A) (A) (A) (A) (A) (A) (A) (A) (A)
                 (A) (A) (A) (A) (A) (A) (A) (A) (A) (A) (A) (A)
                 (A) (A) (A) (A) (A) (A) (A) (A) (A) (A) (A) (A)
                 (A) (A) (A) (A) (A) (A) (A) (A) (A) (A) (A) (A)
                 (A) (A) (A) (A) (A) (A) (A) (A) (A) (A) (A) (A)
                 (A) (A) (A) (A) (A) (A) (A) (A) (A) (A) (A) (A)
                 (A) (A) (A) (A) (A) (A) (A) (A) (A) (A) (A) (A)
                 (A) (A) (A) (A) (A) (A) (A) (A) (A) (A) (A) (A)
                 (A) (A) (A) (A) (A) (A) (A) (A) (A) (A) (A) (A)
                 (A) (A) (A) (A) (A) (A) (A) (A) (A) (A) (A) (A)
                 (A) (A) (A) (A) (A) (A) (A) (A) (A) (A) (A) (A)
                 (A) (A) (A) (A) (A) (A) (A) (A) (A) (A) (A) (A)
                 (A) (A) (A) (A) (A) (A) (A) (A) (A) (A) (A) (A)
                 (A) (A) (A) (A) (A) (A) (A) (A) (A) (A) (A) (A)
                 (A) (A) (A) (A) (A) (A) (A) (A) (A) (A) (A) (A)
                 (A) (A) (A) (A) (A) (A) (A) (A) (A) (A) (A) (A)
                 (A) (A) (A) (A) (A) (A) (A) (A) (A) (A) (A) (A)
                 (A) (A) (A) (A) (A) (A) (A) (A) (A) (A) (A) (A)
                 (A) (A) (A) (A) (A) (A) (A) (A) (A) (A) (A) (A)
                 (A) (A) (A) (A) (A)
 The electronic state is 1-A.
 Alpha  occ. eigenvalues --  -25.19871 -25.19807 -14.79310 -14.79309 -14.76620
 Alpha  occ. eigenvalues --  -10.62615 -10.60544 -10.60267 -10.60265 -10.59777
 Alpha  occ. eigenvalues --  -10.59770 -10.57114 -10.57111 -10.56397 -10.56390
 Alpha  occ. eigenvalues --  -10.56114 -10.55622 -10.55621 -10.54831 -10.54827
 Alpha  occ. eigenvalues --   -7.13692  -1.28656  -1.25070  -1.09807  -1.07829
 Alpha  occ. eigenvalues --   -1.03225  -0.95023  -0.90164  -0.88270  -0.86511
 Alpha  occ. eigenvalues --   -0.83946  -0.81966  -0.80784  -0.74370  -0.69234
 Alpha  occ. eigenvalues --   -0.69015  -0.68742  -0.65888  -0.65534  -0.65137
 Alpha  occ. eigenvalues --   -0.61834  -0.60315  -0.59376  -0.59165  -0.57833
 Alpha  occ. eigenvalues --   -0.57181  -0.53855  -0.52707  -0.51638  -0.51252
 Alpha  occ. eigenvalues --   -0.50706  -0.50349  -0.49095  -0.49079  -0.48966
 Alpha  occ. eigenvalues --   -0.47904  -0.46896  -0.46716  -0.46395  -0.46088
 Alpha  occ. eigenvalues --   -0.45655  -0.45144  -0.44833  -0.42996  -0.42135
 Alpha  occ. eigenvalues --   -0.39758  -0.38221  -0.35018  -0.32389  -0.32115
 Alpha  occ. eigenvalues --   -0.31356  -0.27131  -0.24127
 Alpha virt. eigenvalues --   -0.08897   0.02817   0.03694   0.06659   0.07996
 Alpha virt. eigenvalues --    0.10452   0.11236   0.12640   0.13117   0.13545
 Alpha virt. eigenvalues --    0.13945   0.14473   0.15345   0.16655   0.16707
 Alpha virt. eigenvalues --    0.17301   0.17894   0.18100   0.19768   0.19815
 Alpha virt. eigenvalues --    0.21816   0.22001   0.23114   0.23656   0.24450
 Alpha virt. eigenvalues --    0.26156   0.27422   0.27658   0.29766   0.30824
 Alpha virt. eigenvalues --    0.31130   0.32617   0.33055   0.33752   0.35576
 Alpha virt. eigenvalues --    0.37359   0.38326   0.38354   0.39560   0.40235
 Alpha virt. eigenvalues --    0.42579   0.42910   0.43889   0.44083   0.44899
 Alpha virt. eigenvalues --    0.45804   0.46154   0.46323   0.46435   0.47392
 Alpha virt. eigenvalues --    0.47396   0.48634   0.48820   0.50731   0.51117
 Alpha virt. eigenvalues --    0.51375   0.51700   0.54126   0.54819   0.54863
 Alpha virt. eigenvalues --    0.55143   0.56091   0.56640   0.57347   0.59390
 Alpha virt. eigenvalues --    0.59762   0.60017   0.61502   0.61527   0.62399
 Alpha virt. eigenvalues --    0.64027   0.64774   0.65431   0.68980   0.69634
 Alpha virt. eigenvalues --    0.69941   0.70353   0.70412   0.70924   0.71033
 Alpha virt. eigenvalues --    0.71647   0.71818   0.73422   0.73612   0.74987
 Alpha virt. eigenvalues --    0.75004   0.75434   0.76451   0.76652   0.76753
 Alpha virt. eigenvalues --    0.77793   0.78167   0.79321   0.79814   0.80661
 Alpha virt. eigenvalues --    0.82039   0.83004   0.84003   0.86589   0.86707
 Alpha virt. eigenvalues --    0.87266   0.87850   0.89488   0.89998   0.92483
 Alpha virt. eigenvalues --    0.93142   0.94356   0.95545   0.97931   0.99778
 Alpha virt. eigenvalues --    1.01148   1.03908   1.04787   1.06929   1.09627
 Alpha virt. eigenvalues --    1.10379   1.11433   1.11827   1.15091   1.16912
 Alpha virt. eigenvalues --    1.18752   1.19360   1.22947   1.23964   1.24971
 Alpha virt. eigenvalues --    1.25348   1.27928   1.28876   1.29919   1.30682
 Alpha virt. eigenvalues --    1.30788   1.31529   1.31580   1.32526   1.33367
 Alpha virt. eigenvalues --    1.33580   1.34552   1.35404   1.36502   1.37406
 Alpha virt. eigenvalues --    1.37966   1.39518   1.39663   1.42259   1.44207
 Alpha virt. eigenvalues --    1.45128   1.45655   1.49589   1.51325   1.53596
 Alpha virt. eigenvalues --    1.54251   1.59336   1.60496   1.60823   1.65775
 Alpha virt. eigenvalues --    1.66399   1.67471   1.68749   1.68868   1.70638
 Alpha virt. eigenvalues --    1.70715   1.72806   1.73288   1.74501   1.74874
 Alpha virt. eigenvalues --    1.76316   1.76325   1.76659   1.78187   1.78719
 Alpha virt. eigenvalues --    1.79460   1.79925   1.80068   1.81422   1.82119
 Alpha virt. eigenvalues --    1.83199   1.83830   1.85630   1.86574   1.87780
 Alpha virt. eigenvalues --    1.89181   1.89319   1.90222   1.90290   1.92087
 Alpha virt. eigenvalues --    1.92653   1.95507   1.95692   1.96359   1.96932
 Alpha virt. eigenvalues --    1.97320   1.98498   1.99621   1.99884   2.00761
 Alpha virt. eigenvalues --    2.01230   2.04174   2.06247   2.06457   2.07830
 Alpha virt. eigenvalues --    2.10330   2.12533   2.12804   2.15159   2.16496
 Alpha virt. eigenvalues --    2.17413   2.17721   2.19063   2.19770   2.21134
 Alpha virt. eigenvalues --    2.23039   2.24462   2.24490   2.24854   2.26166
 Alpha virt. eigenvalues --    2.27968   2.30582   2.31833   2.32776   2.33164
 Alpha virt. eigenvalues --    2.34091   2.35627   2.38323   2.38939   2.41206
 Alpha virt. eigenvalues --    2.41740   2.43422   2.44655   2.49613   2.55981
 Alpha virt. eigenvalues --    2.56246   2.56385   2.58940   2.61592   2.63619
 Alpha virt. eigenvalues --    2.66364   2.67818   2.68150   2.68236   2.69944
 Alpha virt. eigenvalues --    2.71363   2.72006   2.72288   2.72450   2.74076
 Alpha virt. eigenvalues --    2.74567   2.74685   2.75385   2.79094   2.81015
 Alpha virt. eigenvalues --    2.84124   2.87425   2.88991   2.91555   2.92907
 Alpha virt. eigenvalues --    2.93354   2.98738   3.01526   3.02665   3.08757
 Alpha virt. eigenvalues --    3.12870   3.18467   3.18999   3.19742   3.20911
 Alpha virt. eigenvalues --    3.21376   3.23787   3.24109   3.24930   3.27638
 Alpha virt. eigenvalues --    3.33069   3.43584   3.46814   3.48234   3.52292
 Alpha virt. eigenvalues --    3.52457   3.59357   3.61443   3.68463   3.81178
 Alpha virt. eigenvalues --    3.81674
          Condensed to atoms (all electrons):
               1          2          3          4          5          6
     1  C    5.114069   0.010843   0.231408   0.434735   0.002047  -0.154862
     2  C    0.010843   5.114191   0.231379   0.013045  -0.000404  -0.000160
     3  C    0.231408   0.231379   5.773927  -0.141935   0.023188   0.014645
     4  C    0.434735   0.013045  -0.141935   5.249818   0.311175  -0.021998
     5  C    0.002047  -0.000404   0.023188   0.311175   5.093938   0.411532
     6  C   -0.154862  -0.000160   0.014645  -0.021998   0.411532   4.942923
     7  H    0.012300   0.000010  -0.000557  -0.063176   0.454921  -0.059764
     8  C   -0.000159  -0.154863   0.014642   0.000020  -0.000002   0.000048
     9  C    0.013039   0.434729  -0.141940  -0.000081   0.000004   0.000020
    10  C   -0.000404   0.002064   0.023190   0.000004  -0.000000  -0.000002
    11  H    0.000010   0.012300  -0.000557   0.000000   0.000000   0.000000
    12  N    0.472418  -0.007016  -0.098206  -0.100354  -0.069022   0.399586
    13  N   -0.007015   0.472434  -0.098213  -0.000185  -0.000029   0.000122
    14  B   -0.045862  -0.045863  -0.019400   0.004094  -0.001764  -0.010637
    15  F   -0.003519  -0.003517   0.001691  -0.000045  -0.000069  -0.000816
    16  F   -0.003588  -0.003589   0.001753  -0.000077   0.000092  -0.000083
    17  C   -0.081342  -0.081417   0.425524  -0.013841  -0.000500   0.000105
    18  C   -0.005392  -0.005350  -0.093927   0.000459  -0.000010  -0.000031
    19  C   -0.005287  -0.005397  -0.094405   0.000516  -0.000010  -0.000030
    20  C    0.000830   0.000824   0.010976  -0.000274  -0.000007   0.000000
    21  H   -0.001063  -0.001093  -0.009770   0.000205   0.000009  -0.000002
    22  C    0.000819   0.000840   0.011079  -0.000252  -0.000007   0.000000
    23  H   -0.001057  -0.001055  -0.009774   0.000152   0.000009  -0.000002
    24  C   -0.000030  -0.000031   0.001088  -0.000010   0.000002  -0.000000
    25  H   -0.000005  -0.000004  -0.000210   0.000002  -0.000000   0.000000
    26  H   -0.000005  -0.000005  -0.000213   0.000002  -0.000000   0.000000
    27  H   -0.000507  -0.034969  -0.025255   0.000001   0.000000  -0.000000
    28  H    0.000046   0.003567  -0.000588  -0.000000   0.000000   0.000007
    29  H   -0.034971  -0.000506  -0.025248   0.447795  -0.068155   0.012419
    30  H    0.003567   0.000046  -0.000588   0.011398  -0.060184   0.431873
    31  N   -0.000000  -0.000000   0.000019   0.000000   0.000000  -0.000000
    32  H   -0.000000  -0.000000   0.000000   0.000000   0.000000   0.000000
    33  H   -0.000000  -0.000000  -0.000000   0.000000   0.000000   0.000000
               7          8          9         10         11         12
     1  C    0.012300  -0.000159   0.013039  -0.000404   0.000010   0.472418
     2  C    0.000010  -0.154863   0.434729   0.002064   0.012300  -0.007016
     3  C   -0.000557   0.014642  -0.141940   0.023190  -0.000557  -0.098206
     4  C   -0.063176   0.000020  -0.000081   0.000004   0.000000  -0.100354
     5  C    0.454921  -0.000002   0.000004  -0.000000   0.000000  -0.069022
     6  C   -0.059764   0.000048   0.000020  -0.000002   0.000000   0.399586
     7  H    0.629203   0.000000   0.000000   0.000000  -0.000000   0.005271
     8  C    0.000000   4.942913  -0.021992   0.411528  -0.059765   0.000122
     9  C    0.000000  -0.021992   5.249854   0.311149  -0.063176  -0.000185
    10  C    0.000000   0.411528   0.311149   5.093958   0.454922  -0.000029
    11  H   -0.000000  -0.059765  -0.063176   0.454922   0.629204   0.000002
    12  N    0.005271   0.000122  -0.000185  -0.000029   0.000002   6.468158
    13  N    0.000002   0.399584  -0.100352  -0.069022   0.005271  -0.055779
    14  B    0.000160  -0.010633   0.004095  -0.001765   0.000160   0.305965
    15  F    0.000001  -0.000810  -0.000045  -0.000070   0.000001  -0.038180
    16  F    0.000001  -0.000089  -0.000077   0.000092   0.000001  -0.037333
    17  C   -0.000019   0.000105  -0.013859  -0.000501  -0.000019   0.005120
    18  C    0.000002  -0.000030   0.000466  -0.000010   0.000002  -0.000016
    19  C    0.000001  -0.000031   0.000506  -0.000010   0.000001  -0.000012
    20  C    0.000000   0.000000  -0.000269  -0.000007   0.000000   0.000004
    21  H   -0.000000  -0.000002   0.000191   0.000009  -0.000000  -0.000077
    22  C    0.000000   0.000000  -0.000260  -0.000008   0.000000   0.000004
    23  H   -0.000000  -0.000002   0.000164   0.000009  -0.000000  -0.000076
    24  C    0.000000  -0.000000  -0.000010   0.000002   0.000000  -0.000000
    25  H   -0.000000   0.000000   0.000002  -0.000000  -0.000000  -0.000000
    26  H   -0.000000   0.000000   0.000002  -0.000000  -0.000000  -0.000000
    27  H   -0.000000   0.012420   0.447798  -0.068161  -0.004633  -0.000016
    28  H   -0.000000   0.431874   0.011399  -0.060186  -0.004093   0.000159
    29  H   -0.004633  -0.000000   0.000001   0.000000  -0.000000   0.006123
    30  H   -0.004093   0.000007  -0.000000   0.000000  -0.000000  -0.036728
    31  N   -0.000000  -0.000000   0.000000   0.000000  -0.000000   0.000000
    32  H   -0.000000   0.000000   0.000000   0.000000  -0.000000  -0.000000
    33  H   -0.000000   0.000000   0.000000   0.000000  -0.000000  -0.000000
              13         14         15         16         17         18
     1  C   -0.007015  -0.045862  -0.003519  -0.003588  -0.081342  -0.005392
     2  C    0.472434  -0.045863  -0.003517  -0.003589  -0.081417  -0.005350
     3  C   -0.098213  -0.019400   0.001691   0.001753   0.425524  -0.093927
     4  C   -0.000185   0.004094  -0.000045  -0.000077  -0.013841   0.000459
     5  C   -0.000029  -0.001764  -0.000069   0.000092  -0.000500  -0.000010
     6  C    0.000122  -0.010637  -0.000816  -0.000083   0.000105  -0.000031
     7  H    0.000002   0.000160   0.000001   0.000001  -0.000019   0.000002
     8  C    0.399584  -0.010633  -0.000810  -0.000089   0.000105  -0.000030
     9  C   -0.100352   0.004095  -0.000045  -0.000077  -0.013859   0.000466
    10  C   -0.069022  -0.001765  -0.000070   0.000092  -0.000501  -0.000010
    11  H    0.005271   0.000160   0.000001   0.000001  -0.000019   0.000002
    12  N   -0.055779   0.305965  -0.038180  -0.037333   0.005120  -0.000016
    13  N    6.468154   0.305961  -0.038188  -0.037324   0.005118  -0.000016
    14  B    0.305961   3.390890   0.451541   0.445700   0.002639   0.000053
    15  F   -0.038188   0.451541   8.932502  -0.028990   0.000005   0.000000
    16  F   -0.037324   0.445700  -0.028990   8.935269   0.000005  -0.000000
    17  C    0.005118   0.002639   0.000005   0.000005   5.555941   0.165639
    18  C   -0.000016   0.000053   0.000000  -0.000000   0.165639   5.088268
    19  C   -0.000012   0.000005  -0.000000   0.000000   0.168082   0.037317
    20  C    0.000004  -0.000000  -0.000000   0.000000   0.115063   0.287616
    21  H   -0.000076  -0.000009  -0.000000   0.000000  -0.063449   0.466408
    22  C    0.000004   0.000001   0.000000  -0.000000   0.114904  -0.105242
    23  H   -0.000078  -0.000003   0.000000  -0.000000  -0.063117   0.011812
    24  C   -0.000000   0.000000   0.000000   0.000000  -0.189026   0.147863
    25  H   -0.000000  -0.000000   0.000000  -0.000000   0.013916  -0.052914
    26  H   -0.000000  -0.000000  -0.000000   0.000000   0.013915  -0.002844
    27  H    0.006124   0.000312   0.000001   0.000001   0.009053  -0.000855
    28  H   -0.036727   0.002255   0.000240   0.000759   0.000005   0.000000
    29  H   -0.000016   0.000312   0.000001   0.000001   0.009051  -0.000855
    30  H    0.000159   0.002255   0.000237   0.000763   0.000005   0.000000
    31  N    0.000000   0.000000   0.000000   0.000000  -0.000295   0.006087
    32  H   -0.000000  -0.000000  -0.000000   0.000000   0.000002  -0.000408
    33  H   -0.000000  -0.000000   0.000000  -0.000000   0.000002   0.000642
              19         20         21         22         23         24
     1  C   -0.005287   0.000830  -0.001063   0.000819  -0.001057  -0.000030
     2  C   -0.005397   0.000824  -0.001093   0.000840  -0.001055  -0.000031
     3  C   -0.094405   0.010976  -0.009770   0.011079  -0.009774   0.001088
     4  C    0.000516  -0.000274   0.000205  -0.000252   0.000152  -0.000010
     5  C   -0.000010  -0.000007   0.000009  -0.000007   0.000009   0.000002
     6  C   -0.000030   0.000000  -0.000002   0.000000  -0.000002  -0.000000
     7  H    0.000001   0.000000  -0.000000   0.000000  -0.000000   0.000000
     8  C   -0.000031   0.000000  -0.000002   0.000000  -0.000002  -0.000000
     9  C    0.000506  -0.000269   0.000191  -0.000260   0.000164  -0.000010
    10  C   -0.000010  -0.000007   0.000009  -0.000008   0.000009   0.000002
    11  H    0.000001   0.000000  -0.000000   0.000000  -0.000000   0.000000
    12  N   -0.000012   0.000004  -0.000077   0.000004  -0.000076  -0.000000
    13  N   -0.000012   0.000004  -0.000076   0.000004  -0.000078  -0.000000
    14  B    0.000005  -0.000000  -0.000009   0.000001  -0.000003   0.000000
    15  F   -0.000000  -0.000000  -0.000000   0.000000   0.000000   0.000000
    16  F    0.000000   0.000000   0.000000  -0.000000  -0.000000   0.000000
    17  C    0.168082   0.115063  -0.063449   0.114904  -0.063117  -0.189026
    18  C    0.037317   0.287616   0.466408  -0.105242   0.011812   0.147863
    19  C    5.086875  -0.105113   0.011758   0.286853   0.466171   0.147939
    20  C   -0.105113   5.263673  -0.062818   0.014714  -0.002225   0.084626
    21  H    0.011758  -0.062818   0.587174  -0.002215  -0.000083   0.013841
    22  C    0.286853   0.014714  -0.002215   5.264595  -0.062917   0.084707
    23  H    0.466171  -0.002225  -0.000083  -0.062917   0.587228   0.013839
    24  C    0.147939   0.084626   0.013841   0.084707   0.013839   5.257625
    25  H   -0.002846   0.462195  -0.010543   0.011864   0.000013  -0.069914
    26  H   -0.052910   0.011863   0.000013   0.462182  -0.010535  -0.069892
    27  H   -0.000866   0.000419  -0.000054   0.000412  -0.000055  -0.000056
    28  H    0.000000   0.000000  -0.000000   0.000000  -0.000000  -0.000000
    29  H   -0.000855   0.000423  -0.000053   0.000403  -0.000054  -0.000056
    30  H    0.000000   0.000000  -0.000000   0.000000  -0.000000  -0.000000
    31  N    0.006094  -0.095227  -0.000088  -0.095286  -0.000088   0.564660
    32  H    0.000646   0.009578   0.000007  -0.022152  -0.000021   0.000489
    33  H   -0.000410  -0.022105  -0.000021   0.009585   0.000007   0.000432
              25         26         27         28         29         30
     1  C   -0.000005  -0.000005  -0.000507   0.000046  -0.034971   0.003567
     2  C   -0.000004  -0.000005  -0.034969   0.003567  -0.000506   0.000046
     3  C   -0.000210  -0.000213  -0.025255  -0.000588  -0.025248  -0.000588
     4  C    0.000002   0.000002   0.000001  -0.000000   0.447795   0.011398
     5  C   -0.000000  -0.000000   0.000000   0.000000  -0.068155  -0.060184
     6  C    0.000000   0.000000  -0.000000   0.000007   0.012419   0.431873
     7  H   -0.000000  -0.000000  -0.000000  -0.000000  -0.004633  -0.004093
     8  C    0.000000   0.000000   0.012420   0.431874  -0.000000   0.000007
     9  C    0.000002   0.000002   0.447798   0.011399   0.000001  -0.000000
    10  C   -0.000000  -0.000000  -0.068161  -0.060186   0.000000   0.000000
    11  H   -0.000000  -0.000000  -0.004633  -0.004093  -0.000000  -0.000000
    12  N   -0.000000  -0.000000  -0.000016   0.000159   0.006123  -0.036728
    13  N   -0.000000  -0.000000   0.006124  -0.036727  -0.000016   0.000159
    14  B   -0.000000  -0.000000   0.000312   0.002255   0.000312   0.002255
    15  F    0.000000  -0.000000   0.000001   0.000240   0.000001   0.000237
    16  F   -0.000000   0.000000   0.000001   0.000759   0.000001   0.000763
    17  C    0.013916   0.013915   0.009053   0.000005   0.009051   0.000005
    18  C   -0.052914  -0.002844  -0.000855   0.000000  -0.000855   0.000000
    19  C   -0.002846  -0.052910  -0.000866   0.000000  -0.000855   0.000000
    20  C    0.462195   0.011863   0.000419   0.000000   0.000423   0.000000
    21  H   -0.010543   0.000013  -0.000054  -0.000000  -0.000053  -0.000000
    22  C    0.011864   0.462182   0.000412   0.000000   0.000403   0.000000
    23  H    0.000013  -0.010535  -0.000055  -0.000000  -0.000054  -0.000000
    24  C   -0.069914  -0.069892  -0.000056  -0.000000  -0.000056  -0.000000
    25  H    0.576434  -0.000066  -0.000001  -0.000000  -0.000001  -0.000000
    26  H   -0.000066   0.576420  -0.000001  -0.000000  -0.000001  -0.000000
    27  H   -0.000001  -0.000001   0.637044  -0.000146  -0.000001  -0.000000
    28  H   -0.000000  -0.000000  -0.000146   0.592174  -0.000000   0.000000
    29  H   -0.000001  -0.000001  -0.000001  -0.000000   0.637014  -0.000146
    30  H   -0.000000  -0.000000  -0.000000   0.000000  -0.000146   0.592174
    31  N   -0.009070  -0.009091  -0.000002   0.000000  -0.000002   0.000000
    32  H   -0.000206   0.003958  -0.000000  -0.000000  -0.000000  -0.000000
    33  H    0.003951  -0.000205  -0.000000  -0.000000  -0.000000  -0.000000
              31         32         33
     1  C   -0.000000  -0.000000  -0.000000
     2  C   -0.000000  -0.000000  -0.000000
     3  C    0.000019   0.000000  -0.000000
     4  C    0.000000   0.000000   0.000000
     5  C    0.000000   0.000000   0.000000
     6  C   -0.000000   0.000000   0.000000
     7  H   -0.000000  -0.000000  -0.000000
     8  C   -0.000000   0.000000   0.000000
     9  C    0.000000   0.000000   0.000000
    10  C    0.000000   0.000000   0.000000
    11  H   -0.000000  -0.000000  -0.000000
    12  N    0.000000  -0.000000  -0.000000
    13  N    0.000000  -0.000000  -0.000000
    14  B    0.000000  -0.000000  -0.000000
    15  F    0.000000  -0.000000   0.000000
    16  F    0.000000   0.000000  -0.000000
    17  C   -0.000295   0.000002   0.000002
    18  C    0.006087  -0.000408   0.000642
    19  C    0.006094   0.000646  -0.000410
    20  C   -0.095227   0.009578  -0.022105
    21  H   -0.000088   0.000007  -0.000021
    22  C   -0.095286  -0.022152   0.009585
    23  H   -0.000088  -0.000021   0.000007
    24  C    0.564660   0.000489   0.000432
    25  H   -0.009070  -0.000206   0.003951
    26  H   -0.009091   0.003958  -0.000205
    27  H   -0.000002  -0.000000  -0.000000
    28  H    0.000000  -0.000000  -0.000000
    29  H   -0.000002  -0.000000  -0.000000
    30  H    0.000000  -0.000000  -0.000000
    31  N    5.882879   0.365958   0.365960
    32  H    0.365958   0.443634  -0.022249
    33  H    0.365960  -0.022249   0.443673
 Mulliken charges:
               1
     1  C    0.048937
     2  C    0.048971
     3  C   -0.003726
     4  C   -0.131196
     5  C   -0.096757
     6  C    0.035107
     7  H    0.030370
     8  C    0.035115
     9  C   -0.131175
    10  C   -0.096756
    11  H    0.030369
    12  N   -0.219904
    13  N   -0.219906
    14  B    0.219538
    15  F   -0.271971
    16  F   -0.273287
    17  C   -0.096814
    18  C    0.055266
    19  C    0.055429
    20  C    0.025237
    21  H    0.071803
    22  C    0.025373
    23  H    0.071738
    24  C    0.011910
    25  H    0.077404
    26  H    0.077416
    27  H    0.021992
    28  H    0.059256
    29  H    0.022010
    30  H    0.059255
    31  N    0.017492
    32  H    0.220765
    33  H    0.220738
 Sum of Mulliken charges =  -0.00000
 Mulliken charges with hydrogens summed into heavy atoms:
               1
     1  C    0.048937
     2  C    0.048971
     3  C   -0.003726
     4  C   -0.109186
     5  C   -0.066388
     6  C    0.094362
     8  C    0.094371
     9  C   -0.109183
    10  C   -0.066387
    12  N   -0.219904
    13  N   -0.219906
    14  B    0.219538
    15  F   -0.271971
    16  F   -0.273287
    17  C   -0.096814
    18  C    0.127069
    19  C    0.127167
    20  C    0.102642
    22  C    0.102790
    24  C    0.011910
    31  N    0.458995
 Electronic spatial extent (au):  <R**2>=           6125.1938
 Charge=             -0.0000 electrons
 Dipole moment (field-independent basis, Debye):
    X=            -30.1351    Y=             -0.0029    Z=             -0.0782  Tot=             30.1352
 Quadrupole moment (field-independent basis, Debye-Ang):
   XX=            -39.2376   YY=           -125.4729   ZZ=           -116.6953
   XY=             -0.0066   XZ=             -0.7496   YZ=              0.0828
 Traceless Quadrupole moment (field-independent basis, Debye-Ang):
   XX=             54.5643   YY=            -31.6710   ZZ=            -22.8933
   XY=             -0.0066   XZ=             -0.7496   YZ=              0.0828
 Octapole moment (field-independent basis, Debye-Ang**2):
  XXX=           -734.6933  YYY=              0.0294  ZZZ=              1.0492  XYY=             18.0480
  XXY=             -0.0167  XXZ=              0.6455  XZZ=            -65.2478  YZZ=             -0.0007
  YYZ=             -0.1855  XYZ=             -0.3363
 Hexadecapole moment (field-independent basis, Debye-Ang**3):
 XXXX=          -1846.2038 YYYY=          -2076.4955 ZZZZ=           -415.6224 XXXY=             -0.2294
 XXXZ=            -10.8834 YYYX=              0.0809 YYYZ=             -0.1199 ZZZX=             -2.0386
 ZZZY=              0.6423 XXYY=          -1221.7981 XXZZ=           -821.0032 YYZZ=           -500.0644
 XXYZ=              1.3746 YYXZ=              0.0717 ZZXY=              0.0153
 N-N= 1.586040042245D+03 E-N=-5.428848681292D+03  KE= 9.574447869687D+02
 Unable to Open any file for archive entry.
 1\1\GINC-X1001C0S4B1N0\SP\RM062X TD-FC\def2SVP\C15H12B1F2N3\1008721\10
 -Oct-2025\0\\# td=(nstates=3,root=1) scrf=(smd,solvent=ethanol,correct
 edlr,noneq=save) def2svp m062x\\BDP-NH2_ethanol_m062x_m062x_m062x\\0,1
 \C,0,0.616978,1.233235,0.012277\C,0,0.615929,-1.232712,0.014834\C,0,-0
 .101766,0.00056,0.006335\C,0,0.161586,2.561311,0.025704\C,0,1.313266,3
 .384175,0.034202\C,0,2.41347,2.539284,0.025445\H,0,1.343689,4.471411,0
 .046847\C,0,2.411308,-2.540272,0.029598\C,0,0.159404,-2.560382,0.02999
 7\C,0,1.310387,-3.384214,0.039534\H,0,1.339885,-4.47146,0.053419\N,0,1
 .995048,1.241308,0.01221\N,0,1.993991,-1.241956,0.014709\B,0,2.909156,
 -0.00075,-0.027424\F,0,3.682606,-0.002274,-1.198555\F,0,3.786462,-0.00
 0006,1.06654\C,0,-1.558117,0.00107,0.000698\C,0,-2.293871,0.007045,1.2
 30285\C,0,-2.28275,-0.005539,-1.23549\C,0,-3.65608,0.007309,1.237558\H
 ,0,-1.738324,0.011871,2.169059\C,0,-3.644712,-0.006536,-1.254882\H,0,-
 1.718745,-0.010258,-2.169186\C,0,-4.373185,0.000251,-0.011987\H,0,-4.2
 25377,0.012517,2.167689\H,0,-4.206137,-0.012235,-2.189806\H,0,-0.88388
 ,-2.870262,0.035864\H,0,3.472841,-2.782096,0.031569\H,0,-0.881431,2.87
 2089,0.031451\H,0,3.475208,2.780204,0.027481\N,0,-5.685847,-0.00003,-0
 .018537\H,0,-6.204775,-0.005039,-0.894903\H,0,-6.213769,0.004755,0.852
 435\\Version=ES64L-G16RevC.01\State=1-A\HF=-966.7308461\RMSD=5.285e-09
 \Dipole=-11.8560795,0.0011554,0.0307523\Quadrupole=40.5672335,-23.5466
 081,-17.0206253,0.0048842,0.5573004,0.0615953\PG=C01 [X(C15H12B1F2N3)]
 \\@
 The archive entry for this job was punched.


 FRICTION IS A DRAG,
 AND ENTROPY AIN'T WHAT IT USED TO BE.
 Job cpu time:       0 days  4 hours 49 minutes 41.4 seconds.
 Elapsed time:       0 days  0 hours  9 minutes 12.4 seconds.
 File lengths (MBytes):  RWF=    784 Int=      0 D2E=      0 Chk=     25 Scr=      1
 Normal termination of Gaussian 16 at Fri Oct 10 15:12:29 2025.
