 Entering Gaussian System, Link 0=g16
 Initial command:
 /home/users/sutd/1008721/g16/l1.exe "/home/users/sutd/1008721/scratch/g16/scratch/Gau-692748.inp" -scrdir="/home/users/sutd/1008721/scratch/g16/scratch/"
 Entering Link 1 = /home/users/sutd/1008721/g16/l1.exe PID=    692749.
  
 Copyright (c) 1988-2019, Gaussian, Inc.  All Rights Reserved.
  
 This is part of the Gaussian(R) 16 program.  It is based on
 the Gaussian(R) 09 system (copyright 2009, Gaussian, Inc.),
 the Gaussian(R) 03 system (copyright 2003, Gaussian, Inc.),
 the Gaussian(R) 98 system (copyright 1998, Gaussian, Inc.),
 the Gaussian(R) 94 system (copyright 1995, Gaussian, Inc.),
 the Gaussian 92(TM) system (copyright 1992, Gaussian, Inc.),
 the Gaussian 90(TM) system (copyright 1990, Gaussian, Inc.),
 the Gaussian 88(TM) system (copyright 1988, Gaussian, Inc.),
 the Gaussian 86(TM) system (copyright 1986, Carnegie Mellon
 University), and the Gaussian 82(TM) system (copyright 1983,
 Carnegie Mellon University). Gaussian is a federally registered
 trademark of Gaussian, Inc.
  
 This software contains proprietary and confidential information,
 including trade secrets, belonging to Gaussian, Inc.
  
 This software is provided under written license and may be
 used, copied, transmitted, or stored only in accord with that
 written license.
  
 The following legend is applicable only to US Government
 contracts under FAR:
  
                    RESTRICTED RIGHTS LEGEND
  
 Use, reproduction and disclosure by the US Government is
 subject to restrictions as set forth in subparagraphs (a)
 and (c) of the Commercial Computer Software - Restricted
 Rights clause in FAR 52.227-19.
  
 Gaussian, Inc.
 340 Quinnipiac St., Bldg. 40, Wallingford CT 06492
  
  
 ---------------------------------------------------------------
 Warning -- This program may not be used in any manner that
 competes with the business of Gaussian, Inc. or will provide
 assistance to any competitor of Gaussian, Inc.  The licensee
 of this program is prohibited from giving any competitor of
 Gaussian, Inc. access to this program.  By using this program,
 the user acknowledges that Gaussian, Inc. is engaged in the
 business of creating and licensing software in the field of
 computational chemistry and represents and warrants to the
 licensee that it is not a competitor of Gaussian, Inc. and that
 it will not use this program in any manner prohibited above.
 ---------------------------------------------------------------
  

 Cite this work as:
 Gaussian 16, Revision C.01,
 M. J. Frisch, G. W. Trucks, H. B. Schlegel, G. E. Scuseria, 
 M. A. Robb, J. R. Cheeseman, G. Scalmani, V. Barone, 
 G. A. Petersson, H. Nakatsuji, X. Li, M. Caricato, A. V. Marenich, 
 J. Bloino, B. G. Janesko, R. Gomperts, B. Mennucci, H. P. Hratchian, 
 J. V. Ortiz, A. F. Izmaylov, J. L. Sonnenberg, D. Williams-Young, 
 F. Ding, F. Lipparini, F. Egidi, J. Goings, B. Peng, A. Petrone, 
 T. Henderson, D. Ranasinghe, V. G. Zakrzewski, J. Gao, N. Rega, 
 G. Zheng, W. Liang, M. Hada, M. Ehara, K. Toyota, R. Fukuda, 
 J. Hasegawa, M. Ishida, T. Nakajima, Y. Honda, O. Kitao, H. Nakai, 
 T. Vreven, K. Throssell, J. A. Montgomery, Jr., J. E. Peralta, 
 F. Ogliaro, M. J. Bearpark, J. J. Heyd, E. N. Brothers, K. N. Kudin, 
 V. N. Staroverov, T. A. Keith, R. Kobayashi, J. Normand, 
 K. Raghavachari, A. P. Rendell, J. C. Burant, S. S. Iyengar, 
 J. Tomasi, M. Cossi, J. M. Millam, M. Klene, C. Adamo, R. Cammi, 
 J. W. Ochterski, R. L. Martin, K. Morokuma, O. Farkas, 
 J. B. Foresman, and D. J. Fox, Gaussian, Inc., Wallingford CT, 2019.
 
 ******************************************
 Gaussian 16:  ES64L-G16RevC.01  3-Jul-2019
                10-Oct-2025 
 ******************************************
 %nprocshared=32
 Will use up to   32 processors via shared memory.
 %mem=64GB
 %oldchk=06BDP-NH2_ethanol_m062x_m062x_m062x.chk
 %chk=07BDP-NH2_ethanol_m062x_m062x_m062x.chk
 Copying data from "06BDP-NH2_ethanol_m062x_m062x_m062x.chk" to current chk file "07BDP-NH2_ethanol_m062x_m062x_m062x.chk"
 IOpt=  2 FromEx=T IUOpen= 4 IOptOp= 5 NList=   0 IFRang= 0 IUIn= 4 IUOut= 2.
 ----------------------------------------------------------------------
 # m062x/def2svp geom=check guess=read SCRF=(SMD, solvent=ethanol, NonE
 q=Read)
 ----------------------------------------------------------------------
 1/29=2,38=1,172=1/1;
 2/12=2,40=1/2;
 3/5=43,7=101,11=2,14=-4,25=1,30=1,70=6032201,72=4,74=-55,116=-2/1,2,3;
 4/5=1/1;
 5/5=2,38=6,53=4/2;
 6/7=2,8=2,9=2,10=2,28=1/1;
 99/5=1,9=1/99;
 ---------------------------------
 BDP-NH2_ethanol_m062x_m062x_m062x
 ---------------------------------
 Structure from the checkpoint file:  "07BDP-NH2_ethanol_m062x_m062x_m062x.chk"
 Charge =  0 Multiplicity = 1
 Z-Matrix found in chk file.
 C,0,0.616978,1.233235,0.012277
 C,0,0.615929,-1.232712,0.014834
 C,0,-0.101766,0.00056,0.006335
 C,0,0.161586,2.561311,0.025704
 C,0,1.313266,3.384175,0.034202
 C,0,2.41347,2.539284,0.025445
 H,0,1.343689,4.471411,0.046847
 C,0,2.411308,-2.540272,0.029598
 C,0,0.159404,-2.560382,0.029997
 C,0,1.310387,-3.384214,0.039534
 H,0,1.339885,-4.47146,0.053419
 N,0,1.995048,1.241308,0.01221
 N,0,1.993991,-1.241956,0.014709
 B,0,2.909156,-0.00075,-0.027424
 F,0,3.682606,-0.002274,-1.198555
 F,0,3.786462,-0.000006,1.06654
 C,0,-1.558117,0.00107,0.000698
 C,0,-2.293871,0.007045,1.230285
 C,0,-2.28275,-0.005539,-1.23549
 C,0,-3.65608,0.007309,1.237558
 H,0,-1.738324,0.011871,2.169059
 C,0,-3.644712,-0.006536,-1.254882
 H,0,-1.718745,-0.010258,-2.169186
 C,0,-4.373185,0.000251,-0.011987
 H,0,-4.225377,0.012517,2.167689
 H,0,-4.206137,-0.012235,-2.189806
 H,0,-0.88388,-2.870262,0.035864
 H,0,3.472841,-2.782096,0.031569
 H,0,-0.881431,2.872089,0.031451
 H,0,3.475208,2.780204,0.027481
 N,0,-5.685847,-0.00003,-0.018537
 H,0,-6.204775,-0.005039,-0.894903
 H,0,-6.213769,0.004755,0.852435
 Recover connectivity data from disk.
                          Input orientation:                          
 ---------------------------------------------------------------------
 Center     Atomic      Atomic             Coordinates (Angstroms)
 Number     Number       Type             X           Y           Z
 ---------------------------------------------------------------------
      1          6           0        0.616978    1.233235    0.012277
      2          6           0        0.615929   -1.232712    0.014834
      3          6           0       -0.101766    0.000560    0.006335
      4          6           0        0.161586    2.561311    0.025704
      5          6           0        1.313266    3.384175    0.034202
      6          6           0        2.413470    2.539284    0.025445
      7          1           0        1.343689    4.471411    0.046847
      8          6           0        2.411308   -2.540272    0.029598
      9          6           0        0.159404   -2.560382    0.029997
     10          6           0        1.310387   -3.384214    0.039534
     11          1           0        1.339885   -4.471460    0.053419
     12          7           0        1.995048    1.241308    0.012210
     13          7           0        1.993991   -1.241956    0.014709
     14          5           0        2.909156   -0.000750   -0.027424
     15          9           0        3.682606   -0.002274   -1.198555
     16          9           0        3.786462   -0.000006    1.066540
     17          6           0       -1.558117    0.001070    0.000698
     18          6           0       -2.293871    0.007045    1.230285
     19          6           0       -2.282750   -0.005539   -1.235490
     20          6           0       -3.656080    0.007309    1.237558
     21          1           0       -1.738324    0.011871    2.169059
     22          6           0       -3.644712   -0.006536   -1.254882
     23          1           0       -1.718745   -0.010258   -2.169186
     24          6           0       -4.373185    0.000251   -0.011987
     25          1           0       -4.225377    0.012517    2.167689
     26          1           0       -4.206137   -0.012235   -2.189806
     27          1           0       -0.883880   -2.870262    0.035864
     28          1           0        3.472841   -2.782096    0.031569
     29          1           0       -0.881431    2.872089    0.031451
     30          1           0        3.475208    2.780204    0.027481
     31          7           0       -5.685847   -0.000030   -0.018537
     32          1           0       -6.204775   -0.005039   -0.894903
     33          1           0       -6.213769    0.004755    0.852435
 ---------------------------------------------------------------------
                    Distance matrix (angstroms):
                    1          2          3          4          5
     1  C    0.000000
     2  C    2.465949   0.000000
     3  C    1.426925   1.426926   0.000000
     4  C    1.404047   3.821146   2.574330   0.000000
     5  C    2.260938   4.669293   3.667689   1.415466   0.000000
     6  C    2.221108   4.178423   3.573779   2.251992   1.387215
     7  H    3.318899   5.750450   4.698882   2.246396   1.087735
     8  C    4.178430   2.221107   3.573781   5.575609   6.025346
     9  C    3.821154   1.404049   2.574334   5.121695   6.055508
    10  C    4.669303   2.260938   3.667693   6.055510   6.768392
    11  H    5.750464   3.318899   4.698887   7.130850   7.855704
    12  N    1.378094   2.832446   2.436415   2.259242   2.248820
    13  N    2.832444   1.378093   2.436414   4.221690   4.675987
    14  B    2.603531   2.603537   3.011112   3.757143   3.742777
    15  F    3.520039   3.520057   3.971554   4.524197   4.312945
    16  F    3.560615   3.560608   4.030180   4.558883   4.316839
    17  C    2.499881   2.499779   1.456362   3.084289   4.437495
    18  C    3.385281   3.388400   2.510661   3.742267   5.084000
    19  C    3.391151   3.386976   2.509753   3.762195   5.102314
    20  C    4.611207   4.613325   3.761529   4.750378   6.127454
    21  H    3.419194   3.425227   2.712162   3.834485   5.024167
    22  C    4.615704   4.611805   3.760743   4.766722   6.143306
    23  H    3.429382   3.422724   2.710651   3.868611   5.056697
    24  C    5.140288   5.139278   4.271458   5.208128   6.617311
    25  H    5.439150   5.442759   4.655724   5.507258   6.826156
    26  H    5.446357   5.440802   4.655004   5.532506   6.851688
    27  H    4.369419   2.220684   2.975600   5.531283   6.629135
    28  H    4.927394   3.250049   4.530080   6.286210   6.533504
    29  H    2.220684   4.369411   2.975599   1.088348   2.253649
    30  H    3.250050   4.927386   4.530078   3.320844   2.244731
    31  N    6.422421   6.421293   5.584136   6.383956   7.774523
    32  H    6.992325   6.989764   6.169196   6.925621   8.298852
    33  H    6.991004   6.991257   6.170290   6.918426   8.291335
                    6          7          8          9         10
     6  C    0.000000
     7  H    2.208620   0.000000
     8  C    5.079558   7.092518   0.000000
     9  C    5.575610   7.130843   2.251994   0.000000
    10  C    6.025348   7.855699   1.387214   1.415469   0.000000
    11  H    7.092524   8.942874   2.208620   2.246398   1.087735
    12  N    1.363816   3.295305   3.804461   4.221700   4.675998
    13  N    3.804452   5.750347   1.363818   2.259246   2.248822
    14  B    2.588488   4.738821   2.588489   3.757146   3.742776
    15  F    3.093283   5.199559   3.092894   4.523959   4.312517
    16  F    3.068710   5.196199   3.069079   4.559111   4.317239
    17  C    4.713454   5.329780   4.713342   3.084116   4.437338
    18  C    5.479319   5.879025   5.483537   3.748457   5.090108
    19  C    5.488220   5.902417   5.482654   3.754037   5.094287
    20  C    6.687268   6.807620   6.690481   4.754909   6.132168
    21  H    5.312277   5.821519   5.320730   3.846225   5.036160
    22  C    6.694924   6.828664   6.689177   4.758607   6.134919
    23  H    5.328393   5.862991   5.319113   3.855773   5.043576
    24  C    7.246156   7.257919   7.244676   5.206051   6.615153
    25  H    7.419437   7.442728   7.425211   5.515056   6.834582
    26  H    7.432145   7.477049   7.423429   5.520736   6.839023
    27  H    6.335283   7.672180   3.311676   1.088348   2.253657
    28  H    5.425808   7.559556   1.088731   3.320847   2.244731
    29  H    3.311671   2.740297   6.335281   5.531282   6.629137
    30  H    1.088731   2.721016   5.425804   6.286209   6.533502
    31  N    8.488167   8.331413   8.486405   6.381592   7.771960
    32  H    9.032982   8.826370   9.028787   6.920115   8.292747
    33  H    9.029784   8.815620   9.030292   6.919080   8.292095
                   11         12         13         14         15
    11  H    0.000000
    12  N    5.750361   0.000000
    13  N    3.295307   2.483265   0.000000
    14  B    4.738818   1.542683   1.542691   0.000000
    15  F    5.198981   2.420806   2.420794   1.403487   0.000000
    16  F    5.196735   2.421082   2.421103   1.402292   2.267476
    17  C    5.329608   3.763417   3.763347   4.467362   5.376188
    18  C    5.886103   4.626223   4.628541   5.352885   6.451173
    19  C    5.893150   4.627196   4.624093   5.330604   5.965471
    20  C    6.813312   5.912654   5.914332   6.685998   7.732467
    21  H    5.835371   4.483478   4.488149   5.140405   6.381811
    22  C    6.818607   5.913504   5.910423   6.667824   7.327536
    23  H    5.847864   4.485216   4.480054   5.099481   5.487876
    24  C    7.255318   6.488081   6.487274   7.282357   8.142710
    25  H    7.453075   6.696992   6.699967   7.464600   8.594650
    26  H    7.461575   6.698876   6.694303   7.436627   7.950783
    27  H    2.740305   5.019342   3.306655   4.756598   5.531902
    28  H    2.721016   4.286260   2.135255   2.838504   3.047067
    29  H    7.672186   3.306652   5.019332   4.756598   5.532207
    30  H    7.559557   2.135254   4.286250   2.838509   3.047681
    31  N    8.328252   7.780618   7.779678   8.595008   9.442476
    32  H    8.818737   8.343460   8.341290   9.155123   9.892043
    33  H    8.816610   8.343843   8.344064   9.165257  10.106673
                   16         17         18         19         20
    16  F    0.000000
    17  C    5.449821   0.000000
    18  C    6.082542   1.432918   0.000000
    19  C    6.491125   1.432933   2.465832   0.000000
    20  C    7.444510   2.435428   1.362228   2.828810   0.000000
    21  H    5.633733   2.175863   1.090849   3.447848   2.132019
    22  C    7.785332   2.435245   2.828606   1.362100   2.492504
    23  H    6.385713   2.175851   3.447821   1.090831   3.919117
    24  C    8.230617   2.815097   2.422155   2.422171   1.440712
    25  H    8.087166   3.436605   2.146968   3.918642   1.090537
    26  H    8.630503   3.436640   3.918438   2.147133   3.471278
    27  H    5.577881   2.949641   3.419592   3.432174   4.172478
    28  H    2.984887   5.749566   6.516993   6.514717   7.749626
    29  H    5.577595   2.949847   3.411842   3.442322   4.166574
    30  H    2.984307   5.749666   6.513019   6.519934   7.746515
    31  N    9.534256   4.127775   3.614569   3.614149   2.387003
    32  H   10.181950   4.732184   4.451038   3.936785   3.323159
    33  H   10.002524   4.732924   3.938068   4.451118   2.586523
                   21         22         23         24         25
    21  H    0.000000
    22  C    3.918932   0.000000
    23  H    4.338346   2.131974   0.000000
    24  C    3.420466   1.440662   3.420478   0.000000
    25  H    2.487053   3.471531   5.009212   2.184716   0.000000
    26  H    5.009030   1.090556   2.487478   2.184252   4.357608
    27  H    3.686094   4.182003   3.706598   4.518560   4.901091
    28  H    6.287397   7.747145   6.283230   8.324871   8.463772
    29  H    3.672122   4.192476   3.721804   4.521248   4.891078
    30  H    6.279406   7.752653   6.291993   8.326282   8.458108
    31  N    4.513165   2.386383   4.512571   1.312678   2.629204
    32  H    5.416395   2.585248   4.663506   2.033295   3.646614
    33  H    4.665100   3.322795   5.416240   2.033469   2.384042
                   26         27         28         29         30
    26  H    0.000000
    27  H    4.915213   0.000000
    28  H    8.460103   4.357615   0.000000
    29  H    4.930211   5.742353   7.136490   0.000000
    30  H    8.468597   7.136490   5.562302   4.357610   0.000000
    31  N    2.627565   5.594647   9.572041   5.597676   9.573753
    32  H    2.381466   6.114553  10.110719   6.121600  10.114862
    33  H    3.645011   6.110665  10.112901   6.109783  10.112366
                   31         32         33
    31  N    0.000000
    32  H    1.018493   0.000000
    33  H    1.018487   1.747389   0.000000
 Stoichiometry    C15H12BF2N3
 Framework group  C1[X(C15H12BF2N3)]
 Deg. of freedom    93
 Full point group                 C1      NOp   1
 Largest Abelian subgroup         C1      NOp   1
 Largest concise Abelian subgroup C1      NOp   1
                         Standard orientation:                         
 ---------------------------------------------------------------------
 Center     Atomic      Atomic             Coordinates (Angstroms)
 Number     Number       Type             X           Y           Z
 ---------------------------------------------------------------------
      1          6           0        0.616978   -1.233235   -0.012277
      2          6           0        0.615929    1.232712   -0.014834
      3          6           0       -0.101766   -0.000560   -0.006335
      4          6           0        0.161586   -2.561311   -0.025704
      5          6           0        1.313266   -3.384175   -0.034202
      6          6           0        2.413470   -2.539284   -0.025445
      7          1           0        1.343689   -4.471411   -0.046847
      8          6           0        2.411308    2.540272   -0.029598
      9          6           0        0.159404    2.560382   -0.029997
     10          6           0        1.310387    3.384214   -0.039534
     11          1           0        1.339885    4.471460   -0.053419
     12          7           0        1.995048   -1.241308   -0.012210
     13          7           0        1.993991    1.241956   -0.014709
     14          5           0        2.909156    0.000750    0.027424
     15          9           0        3.682606    0.002274    1.198555
     16          9           0        3.786462    0.000006   -1.066540
     17          6           0       -1.558117   -0.001070   -0.000698
     18          6           0       -2.293871   -0.007045   -1.230285
     19          6           0       -2.282750    0.005539    1.235490
     20          6           0       -3.656080   -0.007309   -1.237558
     21          1           0       -1.738324   -0.011871   -2.169059
     22          6           0       -3.644712    0.006536    1.254882
     23          1           0       -1.718745    0.010258    2.169186
     24          6           0       -4.373185   -0.000251    0.011987
     25          1           0       -4.225377   -0.012517   -2.167689
     26          1           0       -4.206137    0.012235    2.189806
     27          1           0       -0.883880    2.870262   -0.035864
     28          1           0        3.472841    2.782096   -0.031569
     29          1           0       -0.881431   -2.872089   -0.031451
     30          1           0        3.475208   -2.780204   -0.027481
     31          7           0       -5.685847    0.000030    0.018537
     32          1           0       -6.204775    0.005039    0.894903
     33          1           0       -6.213769   -0.004755   -0.852435
 ---------------------------------------------------------------------
 Rotational constants (GHZ):           0.5726073           0.2130430           0.1702714
 Standard basis: def2SVP (5D, 7F)
 There are   375 symmetry adapted cartesian basis functions of A   symmetry.
 There are   354 symmetry adapted basis functions of A   symmetry.
   354 basis functions,   609 primitive gaussians,   375 cartesian basis functions
    73 alpha electrons       73 beta electrons
       nuclear repulsion energy      1586.0406990562 Hartrees.
 NAtoms=   33 NActive=   33 NUniq=   33 SFac= 1.00D+00 NAtFMM=   60 NAOKFM=F Big=F
 Integral buffers will be    131072 words long.
 Raffenetti 2 integral format.
 Two-electron integral symmetry is turned on.
 ------------------------------------------------------------------------------
 Polarizable Continuum Model (PCM)
 =================================
 Model                : PCM.
 Atomic radii         : SMD-Coulomb.
 Polarization charges : Total charges.
 Charge compensation  : None.
 Solution method      : On-the-fly selection.
 Cavity type          : VdW (van der Waals Surface) (Alpha=1.000).
 Cavity algorithm     : GePol (No added spheres)
                        Default sphere list used, NSphG=   33.
                        Lebedev-Laikov grids with approx.  5.0 points / Ang**2.
                        Smoothing algorithm: York/Karplus (Gamma=1.0000).
                        Polarization charges: spherical gaussians, with
                                              point-specific exponents (IZeta= 3).
                        Self-potential: point-specific (ISelfS= 7).
                        Self-field    : sphere-specific E.n sum rule (ISelfD= 2).
 Solvent              : Ethanol, Eps=  24.852000 Eps(inf)=   1.852593
 ------------------------------------------------------------------------------
 ------------------------------------------------------------------------------
 Atomic radii for non-electrostatic terms: SMD-CDS.
 ------------------------------------------------------------------------------
 Nuclear repulsion after PCM non-electrostatic terms =     1586.0400422447 Hartrees.
 One-electron integrals computed using PRISM.
   1 Symmetry operations used in ECPInt.
 ECPInt:  NShTT=   13203 NPrTT=   49137 LenC2=   11985 LenP2D=   31047.
 LDataN:  DoStor=T MaxTD1= 4 Len=   56
 NBasis=   354 RedAO= T EigKep=  2.88D-04  NBF=   354
 NBsUse=   354 1.00D-06 EigRej= -1.00D+00 NBFU=   354
 Initial guess from the checkpoint file:  "07BDP-NH2_ethanol_m062x_m062x_m062x.chk"
 B after Tr=    -0.000000   -0.000000    0.000000
         Rot=    1.000000    0.000000   -0.000000    0.000000 Ang=   0.00 deg.
 Requested convergence on RMS density matrix=1.00D-08 within 128 cycles.
 Requested convergence on MAX density matrix=1.00D-06.
 Requested convergence on             energy=1.00D-06.
 No special actions if energy rises.
 Inv3:  Mode=1 IEnd=    20467632.
 Iteration    1 A*A^-1 deviation from unit magnitude is 4.88D-15 for   2611.
 Iteration    1 A*A^-1 deviation from orthogonality  is 2.54D-15 for   2476     67.
 Iteration    1 A^-1*A deviation from unit magnitude is 4.66D-15 for   2611.
 Iteration    1 A^-1*A deviation from orthogonality  is 8.59D-14 for   1188   1126.
 NEqPCM:  Using non-equilibrium solvation (IEInf=1, Eps=  24.8520, EpsInf=   1.8526)
 Inv3:  Mode=1 IEnd=    20467632.
 Iteration    1 A*A^-1 deviation from unit magnitude is 6.88D-15 for   2593.
 Iteration    1 A*A^-1 deviation from orthogonality  is 1.73D-15 for   1450    179.
 Iteration    1 A^-1*A deviation from unit magnitude is 6.88D-15 for   2593.
 Iteration    1 A^-1*A deviation from orthogonality  is 2.05D-15 for   2604   2593.
 Error on total polarization charges =  0.02022
 SCF Done:  E(RM062X) =  -966.713024634     A.U. after   15 cycles
            NFock= 15  Conv=0.24D-08     -V/T= 2.0097
 SMD-CDS (non-electrostatic) energy       (kcal/mol) =      -0.41
 (included in total energy above)

 **********************************************************************

            Population analysis using the SCF Density.

 **********************************************************************

 Orbital symmetries:
       Occupied  (A) (A) (A) (A) (A) (A) (A) (A) (A) (A) (A) (A)
                 (A) (A) (A) (A) (A) (A) (A) (A) (A) (A) (A) (A)
                 (A) (A) (A) (A) (A) (A) (A) (A) (A) (A) (A) (A)
                 (A) (A) (A) (A) (A) (A) (A) (A) (A) (A) (A) (A)
                 (A) (A) (A) (A) (A) (A) (A) (A) (A) (A) (A) (A)
                 (A) (A) (A) (A) (A) (A) (A) (A) (A) (A) (A) (A)
                 (A)
       Virtual   (A) (A) (A) (A) (A) (A) (A) (A) (A) (A) (A) (A)
                 (A) (A) (A) (A) (A) (A) (A) (A) (A) (A) (A) (A)
                 (A) (A) (A) (A) (A) (A) (A) (A) (A) (A) (A) (A)
                 (A) (A) (A) (A) (A) (A) (A) (A) (A) (A) (A) (A)
                 (A) (A) (A) (A) (A) (A) (A) (A) (A) (A) (A) (A)
                 (A) (A) (A) (A) (A) (A) (A) (A) (A) (A) (A) (A)
                 (A) (A) (A) (A) (A) (A) (A) (A) (A) (A) (A) (A)
                 (A) (A) (A) (A) (A) (A) (A) (A) (A) (A) (A) (A)
                 (A) (A) (A) (A) (A) (A) (A) (A) (A) (A) (A) (A)
                 (A) (A) (A) (A) (A) (A) (A) (A) (A) (A) (A) (A)
                 (A) (A) (A) (A) (A) (A) (A) (A) (A) (A) (A) (A)
                 (A) (A) (A) (A) (A) (A) (A) (A) (A) (A) (A) (A)
                 (A) (A) (A) (A) (A) (A) (A) (A) (A) (A) (A) (A)
                 (A) (A) (A) (A) (A) (A) (A) (A) (A) (A) (A) (A)
                 (A) (A) (A) (A) (A) (A) (A) (A) (A) (A) (A) (A)
                 (A) (A) (A) (A) (A) (A) (A) (A) (A) (A) (A) (A)
                 (A) (A) (A) (A) (A) (A) (A) (A) (A) (A) (A) (A)
                 (A) (A) (A) (A) (A) (A) (A) (A) (A) (A) (A) (A)
                 (A) (A) (A) (A) (A) (A) (A) (A) (A) (A) (A) (A)
                 (A) (A) (A) (A) (A) (A) (A) (A) (A) (A) (A) (A)
                 (A) (A) (A) (A) (A) (A) (A) (A) (A) (A) (A) (A)
                 (A) (A) (A) (A) (A) (A) (A) (A) (A) (A) (A) (A)
                 (A) (A) (A) (A) (A) (A) (A) (A) (A) (A) (A) (A)
                 (A) (A) (A) (A) (A)
 The electronic state is 1-A.
 Alpha  occ. eigenvalues --  -25.21769 -25.21695 -14.80965 -14.80964 -14.73787
 Alpha  occ. eigenvalues --  -10.63655 -10.61892 -10.61889 -10.61023 -10.61017
 Alpha  occ. eigenvalues --  -10.58412 -10.58410 -10.58124 -10.57204 -10.57204
 Alpha  occ. eigenvalues --  -10.54681 -10.54671 -10.54515 -10.52485 -10.52480
 Alpha  occ. eigenvalues --   -7.15481  -1.30555  -1.26970  -1.11409  -1.09453
 Alpha  occ. eigenvalues --   -1.00388  -0.94607  -0.90234  -0.89037  -0.88030
 Alpha  occ. eigenvalues --   -0.83489  -0.81817  -0.80203  -0.74394  -0.70533
 Alpha  occ. eigenvalues --   -0.68920  -0.67325  -0.67092  -0.66583  -0.65108
 Alpha  occ. eigenvalues --   -0.63428  -0.61119  -0.59096  -0.58772  -0.57245
 Alpha  occ. eigenvalues --   -0.56688  -0.55109  -0.54312  -0.52353  -0.52209
 Alpha  occ. eigenvalues --   -0.52125  -0.52114  -0.49477  -0.48221  -0.48085
 Alpha  occ. eigenvalues --   -0.47741  -0.47426  -0.47387  -0.47013  -0.46806
 Alpha  occ. eigenvalues --   -0.46634  -0.46357  -0.44098  -0.43675  -0.41921
 Alpha  occ. eigenvalues --   -0.38213  -0.36088  -0.35739  -0.34012  -0.33106
 Alpha  occ. eigenvalues --   -0.29961  -0.28663  -0.21773
 Alpha virt. eigenvalues --   -0.10147   0.04406   0.05596   0.05682   0.06260
 Alpha virt. eigenvalues --    0.08923   0.11630   0.12535   0.13053   0.13300
 Alpha virt. eigenvalues --    0.14177   0.14591   0.15565   0.15643   0.16088
 Alpha virt. eigenvalues --    0.16506   0.17187   0.19588   0.20300   0.20903
 Alpha virt. eigenvalues --    0.21059   0.21727   0.22786   0.23256   0.24320
 Alpha virt. eigenvalues --    0.24720   0.26145   0.28550   0.29161   0.29599
 Alpha virt. eigenvalues --    0.31260   0.32891   0.33577   0.35106   0.35545
 Alpha virt. eigenvalues --    0.36771   0.38001   0.38069   0.39067   0.40500
 Alpha virt. eigenvalues --    0.41323   0.42246   0.42622   0.44209   0.44313
 Alpha virt. eigenvalues --    0.44929   0.44992   0.45876   0.46083   0.46757
 Alpha virt. eigenvalues --    0.47295   0.48158   0.48282   0.49965   0.50114
 Alpha virt. eigenvalues --    0.52247   0.53519   0.53902   0.54143   0.54865
 Alpha virt. eigenvalues --    0.55028   0.55579   0.56361   0.59238   0.59589
 Alpha virt. eigenvalues --    0.59638   0.59685   0.61290   0.62529   0.62800
 Alpha virt. eigenvalues --    0.64207   0.64535   0.66211   0.67867   0.69047
 Alpha virt. eigenvalues --    0.69096   0.69658   0.70199   0.70499   0.71335
 Alpha virt. eigenvalues --    0.71487   0.71876   0.74035   0.74894   0.75158
 Alpha virt. eigenvalues --    0.75382   0.75567   0.76219   0.76820   0.76849
 Alpha virt. eigenvalues --    0.77923   0.78350   0.78577   0.79478   0.81139
 Alpha virt. eigenvalues --    0.82676   0.83182   0.84158   0.86954   0.87268
 Alpha virt. eigenvalues --    0.88430   0.89594   0.89729   0.90559   0.91373
 Alpha virt. eigenvalues --    0.93292   0.94256   0.95471   0.98732   0.98974
 Alpha virt. eigenvalues --    1.01744   1.02427   1.05636   1.06834   1.08227
 Alpha virt. eigenvalues --    1.09337   1.09770   1.13645   1.14880   1.17249
 Alpha virt. eigenvalues --    1.17449   1.17714   1.21489   1.22543   1.23729
 Alpha virt. eigenvalues --    1.24976   1.27724   1.28759   1.30039   1.30513
 Alpha virt. eigenvalues --    1.30901   1.31100   1.32528   1.32904   1.33925
 Alpha virt. eigenvalues --    1.33982   1.34613   1.35753   1.35873   1.37779
 Alpha virt. eigenvalues --    1.38201   1.39581   1.40166   1.40843   1.43488
 Alpha virt. eigenvalues --    1.44788   1.44826   1.49565   1.51964   1.52827
 Alpha virt. eigenvalues --    1.54587   1.58264   1.58927   1.59655   1.65483
 Alpha virt. eigenvalues --    1.65790   1.66141   1.67265   1.68735   1.69182
 Alpha virt. eigenvalues --    1.70166   1.71960   1.73261   1.73486   1.75291
 Alpha virt. eigenvalues --    1.75519   1.75996   1.76508   1.77882   1.79049
 Alpha virt. eigenvalues --    1.79166   1.81504   1.81690   1.81866   1.82461
 Alpha virt. eigenvalues --    1.82994   1.84379   1.85354   1.87703   1.88026
 Alpha virt. eigenvalues --    1.88439   1.89011   1.91082   1.91845   1.92528
 Alpha virt. eigenvalues --    1.93642   1.93901   1.94974   1.95537   1.96493
 Alpha virt. eigenvalues --    1.96511   1.96937   1.98501   1.99392   2.01812
 Alpha virt. eigenvalues --    2.03278   2.03575   2.05156   2.06426   2.08549
 Alpha virt. eigenvalues --    2.09531   2.11609   2.14306   2.14445   2.16346
 Alpha virt. eigenvalues --    2.18204   2.18488   2.18691   2.21201   2.21943
 Alpha virt. eigenvalues --    2.23093   2.23130   2.25790   2.26088   2.26398
 Alpha virt. eigenvalues --    2.28859   2.30781   2.31374   2.31589   2.31715
 Alpha virt. eigenvalues --    2.32802   2.34634   2.37492   2.40893   2.43153
 Alpha virt. eigenvalues --    2.43513   2.44811   2.45543   2.49305   2.55050
 Alpha virt. eigenvalues --    2.55325   2.55687   2.60142   2.61754   2.62445
 Alpha virt. eigenvalues --    2.64882   2.66826   2.67730   2.69396   2.69490
 Alpha virt. eigenvalues --    2.69871   2.71187   2.71376   2.72143   2.72867
 Alpha virt. eigenvalues --    2.72917   2.75796   2.77240   2.81786   2.82850
 Alpha virt. eigenvalues --    2.85731   2.86156   2.89456   2.90423   2.92889
 Alpha virt. eigenvalues --    2.95030   2.97352   2.99982   3.01844   3.10531
 Alpha virt. eigenvalues --    3.15460   3.16557   3.17092   3.17988   3.19799
 Alpha virt. eigenvalues --    3.22176   3.22880   3.23069   3.26109   3.26692
 Alpha virt. eigenvalues --    3.31518   3.42312   3.45296   3.46777   3.50442
 Alpha virt. eigenvalues --    3.50676   3.62246   3.63350   3.66728   3.79309
 Alpha virt. eigenvalues --    3.79802
          Condensed to atoms (all electrons):
               1          2          3          4          5          6
     1  C    5.299886  -0.060482   0.245188   0.388350   0.008664  -0.151795
     2  C   -0.060482   5.300081   0.245068   0.014430  -0.000549  -0.000264
     3  C    0.245188   0.245068   5.468536  -0.110392   0.023021   0.009419
     4  C    0.388350   0.014430  -0.110392   5.128167   0.320238   0.001592
     5  C    0.008664  -0.000549   0.023021   0.320238   5.106313   0.359169
     6  C   -0.151795  -0.000264   0.009419   0.001592   0.359169   4.889482
     7  H    0.011392   0.000008  -0.000466  -0.057175   0.456014  -0.057674
     8  C   -0.000264  -0.151801   0.009416   0.000031  -0.000003   0.000005
     9  C    0.014420   0.388353  -0.110406  -0.000088   0.000001   0.000031
    10  C   -0.000549   0.008686   0.023025   0.000001  -0.000000  -0.000003
    11  H    0.000008   0.011391  -0.000467   0.000000   0.000000   0.000000
    12  N    0.432991  -0.003451  -0.087485  -0.106531  -0.066846   0.426778
    13  N   -0.003449   0.433005  -0.087499  -0.000289  -0.000000   0.000335
    14  B   -0.046190  -0.046190  -0.014169   0.003156  -0.001517  -0.008458
    15  F   -0.003362  -0.003360   0.001549  -0.000041  -0.000066  -0.001092
    16  F   -0.003432  -0.003434   0.001630  -0.000073   0.000095  -0.000336
    17  C   -0.110418  -0.110480   0.433718  -0.003738   0.000183   0.000079
    18  C   -0.012226  -0.012061  -0.053122   0.000369   0.000049  -0.000011
    19  C   -0.011796  -0.012062  -0.052963   0.000462   0.000043  -0.000010
    20  C    0.001248   0.001239   0.006979  -0.000250  -0.000010   0.000000
    21  H   -0.001786  -0.001812  -0.009250   0.000333   0.000008  -0.000004
    22  C    0.001226   0.001254   0.006963  -0.000225  -0.000010   0.000000
    23  H   -0.001785  -0.001790  -0.009375   0.000276   0.000009  -0.000004
    24  C    0.000012   0.000012   0.002297  -0.000018   0.000002  -0.000000
    25  H   -0.000011  -0.000011  -0.000275  -0.000003  -0.000000   0.000000
    26  H   -0.000010  -0.000011  -0.000275  -0.000003  -0.000000   0.000000
    27  H   -0.000250  -0.028247  -0.021158   0.000002   0.000000  -0.000000
    28  H    0.000058   0.003132  -0.000428  -0.000001   0.000000   0.000006
    29  H   -0.028268  -0.000248  -0.021144   0.451050  -0.065175   0.011160
    30  H    0.003132   0.000058  -0.000427   0.010142  -0.055155   0.429573
    31  N   -0.000000  -0.000000   0.000012   0.000000   0.000000  -0.000000
    32  H   -0.000000  -0.000000   0.000001   0.000000   0.000000   0.000000
    33  H   -0.000000  -0.000000   0.000000   0.000000   0.000000   0.000000
               7          8          9         10         11         12
     1  C    0.011392  -0.000264   0.014420  -0.000549   0.000008   0.432991
     2  C    0.000008  -0.151801   0.388353   0.008686   0.011391  -0.003451
     3  C   -0.000466   0.009416  -0.110406   0.023025  -0.000467  -0.087485
     4  C   -0.057175   0.000031  -0.000088   0.000001   0.000000  -0.106531
     5  C    0.456014  -0.000003   0.000001  -0.000000   0.000000  -0.066846
     6  C   -0.057674   0.000005   0.000031  -0.000003   0.000000   0.426778
     7  H    0.591080   0.000000   0.000000   0.000000  -0.000000   0.004764
     8  C    0.000000   4.889486   0.001602   0.359156  -0.057675   0.000335
     9  C    0.000000   0.001602   5.128169   0.320214  -0.057174  -0.000289
    10  C    0.000000   0.359156   0.320214   5.106336   0.456014  -0.000000
    11  H   -0.000000  -0.057675  -0.057174   0.456014   0.591080   0.000002
    12  N    0.004764   0.000335  -0.000289  -0.000000   0.000002   6.470895
    13  N    0.000002   0.426779  -0.106525  -0.066849   0.004764  -0.056860
    14  B    0.000147  -0.008454   0.003157  -0.001519   0.000147   0.295607
    15  F    0.000001  -0.001085  -0.000041  -0.000067   0.000001  -0.036828
    16  F    0.000001  -0.000343  -0.000073   0.000095   0.000001  -0.036120
    17  C   -0.000024   0.000080  -0.003736   0.000182  -0.000024   0.004037
    18  C    0.000000  -0.000010   0.000352   0.000049   0.000000  -0.000084
    19  C    0.000000  -0.000011   0.000477   0.000044   0.000000  -0.000087
    20  C    0.000000   0.000000  -0.000243  -0.000010   0.000000   0.000004
    21  H   -0.000000  -0.000004   0.000318   0.000008  -0.000000  -0.000079
    22  C    0.000000   0.000000  -0.000236  -0.000010   0.000000   0.000004
    23  H   -0.000000  -0.000004   0.000289   0.000008  -0.000000  -0.000077
    24  C    0.000000  -0.000000  -0.000018   0.000002   0.000000  -0.000000
    25  H   -0.000000   0.000000  -0.000003  -0.000000  -0.000000  -0.000000
    26  H   -0.000000   0.000000  -0.000003  -0.000000  -0.000000  -0.000000
    27  H   -0.000000   0.011161   0.451056  -0.065185  -0.004107  -0.000015
    28  H   -0.000000   0.429573   0.010143  -0.055157  -0.003811   0.000150
    29  H   -0.004107  -0.000000   0.000002   0.000000  -0.000000   0.005221
    30  H   -0.003811   0.000006  -0.000001   0.000000  -0.000000  -0.033616
    31  N   -0.000000  -0.000000   0.000000   0.000000  -0.000000   0.000000
    32  H   -0.000000   0.000000   0.000000   0.000000  -0.000000  -0.000000
    33  H   -0.000000   0.000000   0.000000   0.000000  -0.000000  -0.000000
              13         14         15         16         17         18
     1  C   -0.003449  -0.046190  -0.003362  -0.003432  -0.110418  -0.012226
     2  C    0.433005  -0.046190  -0.003360  -0.003434  -0.110480  -0.012061
     3  C   -0.087499  -0.014169   0.001549   0.001630   0.433718  -0.053122
     4  C   -0.000289   0.003156  -0.000041  -0.000073  -0.003738   0.000369
     5  C   -0.000000  -0.001517  -0.000066   0.000095   0.000183   0.000049
     6  C    0.000335  -0.008458  -0.001092  -0.000336   0.000079  -0.000011
     7  H    0.000002   0.000147   0.000001   0.000001  -0.000024   0.000000
     8  C    0.426779  -0.008454  -0.001085  -0.000343   0.000080  -0.000010
     9  C   -0.106525   0.003157  -0.000041  -0.000073  -0.003736   0.000352
    10  C   -0.066849  -0.001519  -0.000067   0.000095   0.000182   0.000049
    11  H    0.004764   0.000147   0.000001   0.000001  -0.000024   0.000000
    12  N   -0.056860   0.295607  -0.036828  -0.036120   0.004037  -0.000084
    13  N    6.470898   0.295604  -0.036836  -0.036112   0.004034  -0.000085
    14  B    0.295604   3.382171   0.454650   0.448812   0.002004   0.000032
    15  F   -0.036836   0.454650   8.916945  -0.028694   0.000005   0.000000
    16  F   -0.036112   0.448812  -0.028694   8.920207   0.000005  -0.000000
    17  C    0.004034   0.002004   0.000005   0.000005   5.620193   0.220168
    18  C   -0.000085   0.000032   0.000000  -0.000000   0.220168   5.027377
    19  C   -0.000086  -0.000002  -0.000000  -0.000000   0.220758   0.090115
    20  C    0.000004  -0.000000  -0.000000  -0.000000   0.090879   0.304261
    21  H   -0.000078  -0.000001  -0.000000   0.000000  -0.083599   0.462995
    22  C    0.000004   0.000001  -0.000000  -0.000000   0.090993  -0.117470
    23  H   -0.000079   0.000006   0.000000  -0.000000  -0.083146   0.011990
    24  C   -0.000000   0.000000   0.000000   0.000000  -0.184490   0.132340
    25  H   -0.000000  -0.000000   0.000000   0.000000   0.016086  -0.068409
    26  H   -0.000000  -0.000000   0.000000   0.000000   0.016071  -0.002317
    27  H    0.005221   0.000277   0.000001   0.000001   0.006754  -0.000313
    28  H   -0.033615   0.002295   0.000237   0.000749   0.000006  -0.000000
    29  H   -0.000015   0.000277   0.000001   0.000001   0.006769  -0.000284
    30  H    0.000150   0.002294   0.000234   0.000752   0.000006  -0.000000
    31  N    0.000000   0.000000   0.000000   0.000000   0.000121   0.007747
    32  H   -0.000000  -0.000000   0.000000  -0.000000  -0.000023  -0.000532
    33  H   -0.000000  -0.000000  -0.000000   0.000000  -0.000023   0.000753
              19         20         21         22         23         24
     1  C   -0.011796   0.001248  -0.001786   0.001226  -0.001785   0.000012
     2  C   -0.012062   0.001239  -0.001812   0.001254  -0.001790   0.000012
     3  C   -0.052963   0.006979  -0.009250   0.006963  -0.009375   0.002297
     4  C    0.000462  -0.000250   0.000333  -0.000225   0.000276  -0.000018
     5  C    0.000043  -0.000010   0.000008  -0.000010   0.000009   0.000002
     6  C   -0.000010   0.000000  -0.000004   0.000000  -0.000004  -0.000000
     7  H    0.000000   0.000000  -0.000000   0.000000  -0.000000   0.000000
     8  C   -0.000011   0.000000  -0.000004   0.000000  -0.000004  -0.000000
     9  C    0.000477  -0.000243   0.000318  -0.000236   0.000289  -0.000018
    10  C    0.000044  -0.000010   0.000008  -0.000010   0.000008   0.000002
    11  H    0.000000   0.000000  -0.000000   0.000000  -0.000000   0.000000
    12  N   -0.000087   0.000004  -0.000079   0.000004  -0.000077  -0.000000
    13  N   -0.000086   0.000004  -0.000078   0.000004  -0.000079  -0.000000
    14  B   -0.000002  -0.000000  -0.000001   0.000001   0.000006   0.000000
    15  F   -0.000000  -0.000000  -0.000000  -0.000000   0.000000   0.000000
    16  F   -0.000000  -0.000000   0.000000  -0.000000  -0.000000   0.000000
    17  C    0.220758   0.090879  -0.083599   0.090993  -0.083146  -0.184490
    18  C    0.090115   0.304261   0.462995  -0.117470   0.011990   0.132340
    19  C    5.025771  -0.117185   0.011959   0.304176   0.462866   0.132355
    20  C   -0.117185   5.270917  -0.061662   0.017226  -0.001960   0.180537
    21  H    0.011959  -0.061662   0.658004  -0.001954  -0.000170   0.014908
    22  C    0.304176   0.017226  -0.001954   5.271136  -0.061816   0.180572
    23  H    0.462866  -0.001960  -0.000170  -0.061816   0.657875   0.014903
    24  C    0.132355   0.180537   0.014908   0.180572   0.014903   5.134058
    25  H   -0.002322   0.461699  -0.012541   0.013159   0.000020  -0.070202
    26  H   -0.068436   0.013157   0.000020   0.461734  -0.012521  -0.070181
    27  H   -0.000346   0.000403  -0.000076   0.000390  -0.000076  -0.000035
    28  H    0.000000   0.000000  -0.000000   0.000000  -0.000000  -0.000000
    29  H   -0.000361   0.000409  -0.000076   0.000376  -0.000074  -0.000035
    30  H   -0.000000   0.000000  -0.000000   0.000000  -0.000000  -0.000000
    31  N    0.007752  -0.108042  -0.000123  -0.108093  -0.000123   0.521499
    32  H    0.000758   0.011988   0.000012  -0.027703  -0.000024  -0.001007
    33  H   -0.000534  -0.027648  -0.000024   0.011995   0.000012  -0.001069
              25         26         27         28         29         30
     1  C   -0.000011  -0.000010  -0.000250   0.000058  -0.028268   0.003132
     2  C   -0.000011  -0.000011  -0.028247   0.003132  -0.000248   0.000058
     3  C   -0.000275  -0.000275  -0.021158  -0.000428  -0.021144  -0.000427
     4  C   -0.000003  -0.000003   0.000002  -0.000001   0.451050   0.010142
     5  C   -0.000000  -0.000000   0.000000   0.000000  -0.065175  -0.055155
     6  C    0.000000   0.000000  -0.000000   0.000006   0.011160   0.429573
     7  H   -0.000000  -0.000000  -0.000000  -0.000000  -0.004107  -0.003811
     8  C    0.000000   0.000000   0.011161   0.429573  -0.000000   0.000006
     9  C   -0.000003  -0.000003   0.451056   0.010143   0.000002  -0.000001
    10  C   -0.000000  -0.000000  -0.065185  -0.055157   0.000000   0.000000
    11  H   -0.000000  -0.000000  -0.004107  -0.003811  -0.000000  -0.000000
    12  N   -0.000000  -0.000000  -0.000015   0.000150   0.005221  -0.033616
    13  N   -0.000000  -0.000000   0.005221  -0.033615  -0.000015   0.000150
    14  B   -0.000000  -0.000000   0.000277   0.002295   0.000277   0.002294
    15  F    0.000000   0.000000   0.000001   0.000237   0.000001   0.000234
    16  F    0.000000   0.000000   0.000001   0.000749   0.000001   0.000752
    17  C    0.016086   0.016071   0.006754   0.000006   0.006769   0.000006
    18  C   -0.068409  -0.002317  -0.000313  -0.000000  -0.000284  -0.000000
    19  C   -0.002322  -0.068436  -0.000346   0.000000  -0.000361  -0.000000
    20  C    0.461699   0.013157   0.000403   0.000000   0.000409   0.000000
    21  H   -0.012541   0.000020  -0.000076  -0.000000  -0.000076  -0.000000
    22  C    0.013159   0.461734   0.000390   0.000000   0.000376   0.000000
    23  H    0.000020  -0.012521  -0.000076  -0.000000  -0.000074  -0.000000
    24  C   -0.070202  -0.070181  -0.000035  -0.000000  -0.000035  -0.000000
    25  H    0.633208  -0.000120  -0.000001  -0.000000  -0.000001  -0.000000
    26  H   -0.000120   0.633145  -0.000001  -0.000000  -0.000001  -0.000000
    27  H   -0.000001  -0.000001   0.570991  -0.000106  -0.000001  -0.000000
    28  H   -0.000000  -0.000000  -0.000106   0.559156  -0.000000   0.000000
    29  H   -0.000001  -0.000001  -0.000001  -0.000000   0.570978  -0.000106
    30  H   -0.000000  -0.000000  -0.000000   0.000000  -0.000106   0.559155
    31  N   -0.010162  -0.010186  -0.000002   0.000000  -0.000002   0.000000
    32  H   -0.000280   0.004602  -0.000000  -0.000000  -0.000000  -0.000000
    33  H    0.004597  -0.000279  -0.000000  -0.000000  -0.000000  -0.000000
              31         32         33
     1  C   -0.000000  -0.000000  -0.000000
     2  C   -0.000000  -0.000000  -0.000000
     3  C    0.000012   0.000001   0.000000
     4  C    0.000000   0.000000   0.000000
     5  C    0.000000   0.000000   0.000000
     6  C   -0.000000   0.000000   0.000000
     7  H   -0.000000  -0.000000  -0.000000
     8  C   -0.000000   0.000000   0.000000
     9  C    0.000000   0.000000   0.000000
    10  C    0.000000   0.000000   0.000000
    11  H   -0.000000  -0.000000  -0.000000
    12  N    0.000000  -0.000000  -0.000000
    13  N    0.000000  -0.000000  -0.000000
    14  B    0.000000  -0.000000  -0.000000
    15  F    0.000000   0.000000  -0.000000
    16  F    0.000000  -0.000000   0.000000
    17  C    0.000121  -0.000023  -0.000023
    18  C    0.007747  -0.000532   0.000753
    19  C    0.007752   0.000758  -0.000534
    20  C   -0.108042   0.011988  -0.027648
    21  H   -0.000123   0.000012  -0.000024
    22  C   -0.108093  -0.027703   0.011995
    23  H   -0.000123  -0.000024   0.000012
    24  C    0.521499  -0.001007  -0.001069
    25  H   -0.010162  -0.000280   0.004597
    26  H   -0.010186   0.004602  -0.000279
    27  H   -0.000002  -0.000000  -0.000000
    28  H    0.000000  -0.000000  -0.000000
    29  H   -0.000002  -0.000000  -0.000000
    30  H    0.000000  -0.000000  -0.000000
    31  N    6.050083   0.369709   0.369710
    32  H    0.369709   0.494001  -0.029165
    33  H    0.369710  -0.029165   0.494038
 Mulliken charges:
               1
     1  C    0.029500
     2  C    0.029536
     3  C    0.102478
     4  C   -0.039774
     5  C   -0.084474
     6  C    0.092021
     7  H    0.059848
     8  C    0.092026
     9  C   -0.039748
    10  C   -0.084472
    11  H    0.059849
    12  N   -0.212419
    13  N   -0.212421
    14  B    0.235864
    15  F   -0.262152
    16  F   -0.263731
    17  C   -0.153433
    18  C    0.008328
    19  C    0.008665
    20  C   -0.043940
    21  H    0.024675
    22  C   -0.043692
    23  H    0.024773
    24  C    0.013560
    25  H    0.035573
    26  H    0.035615
    27  H    0.073663
    28  H    0.087613
    29  H    0.073655
    30  H    0.087613
    31  N   -0.089901
    32  H    0.177665
    33  H    0.177638
 Sum of Mulliken charges =  -0.00000
 Mulliken charges with hydrogens summed into heavy atoms:
               1
     1  C    0.029500
     2  C    0.029536
     3  C    0.102478
     4  C    0.033881
     5  C   -0.024626
     6  C    0.179634
     8  C    0.179639
     9  C    0.033915
    10  C   -0.024623
    12  N   -0.212419
    13  N   -0.212421
    14  B    0.235864
    15  F   -0.262152
    16  F   -0.263731
    17  C   -0.153433
    18  C    0.033003
    19  C    0.033438
    20  C   -0.008368
    22  C   -0.008077
    24  C    0.013560
    31  N    0.265401
 Electronic spatial extent (au):  <R**2>=           6145.6679
 Charge=              0.0000 electrons
 Dipole moment (field-independent basis, Debye):
    X=            -14.5252    Y=             -0.0012    Z=             -0.1731  Tot=             14.5262
 Quadrupole moment (field-independent basis, Debye-Ang):
   XX=            -84.1119   YY=           -105.1983   ZZ=           -119.6341
   XY=             -0.0172   XZ=             -0.6788   YZ=              0.0487
 Traceless Quadrupole moment (field-independent basis, Debye-Ang):
   XX=             18.8695   YY=             -2.2169   ZZ=            -16.6526
   XY=             -0.0172   XZ=             -0.6788   YZ=              0.0487
 Octapole moment (field-independent basis, Debye-Ang**2):
  XXX=           -413.8025  YYY=              0.0349  ZZZ=              0.7795  XYY=             54.5873
  XXY=             -0.0241  XXZ=             -0.2434  XZZ=            -42.0303  YZZ=              0.0031
  YYZ=             -0.8883  XYZ=             -0.2988
 Hexadecapole moment (field-independent basis, Debye-Ang**3):
 XXXX=          -3346.3456 YYYY=          -1795.8582 ZZZZ=           -444.0879 XXXY=             -0.3262
 XXXZ=             -7.2948 YYYX=              0.0097 YYYZ=             -0.3384 ZZZX=             -1.6796
 ZZZY=              0.4827 XXYY=          -1181.2864 XXZZ=           -888.0763 YYZZ=           -484.6153
 XXYZ=              1.1174 YYXZ=             -0.6385 ZZXY=              0.0050
 N-N= 1.586040042245D+03 E-N=-5.427547625482D+03  KE= 9.573809411183D+02
 Unable to Open any file for archive entry.
 1\1\GINC-X1003C0S5B0N0\SP\RM062X\def2SVP\C15H12B1F2N3\1008721\10-Oct-2
 025\0\\# m062x/def2svp geom=check guess=read SCRF=(SMD, solvent=ethano
 l, NonEq=Read)\\BDP-NH2_ethanol_m062x_m062x_m062x\\0,1\C,0,0.616978,1.
 233235,0.012277\C,0,0.615929,-1.232712,0.014834\C,0,-0.101766,0.00056,
 0.006335\C,0,0.161586,2.561311,0.025704\C,0,1.313266,3.384175,0.034202
 \C,0,2.41347,2.539284,0.025445\H,0,1.343689,4.471411,0.046847\C,0,2.41
 1308,-2.540272,0.029598\C,0,0.159404,-2.560382,0.029997\C,0,1.310387,-
 3.384214,0.039534\H,0,1.339885,-4.47146,0.053419\N,0,1.995048,1.241308
 ,0.01221\N,0,1.993991,-1.241956,0.014709\B,0,2.909156,-0.00075,-0.0274
 24\F,0,3.682606,-0.002274,-1.198555\F,0,3.786462,-0.000006,1.06654\C,0
 ,-1.558117,0.00107,0.000698\C,0,-2.293871,0.007045,1.230285\C,0,-2.282
 75,-0.005539,-1.23549\C,0,-3.65608,0.007309,1.237558\H,0,-1.738324,0.0
 11871,2.169059\C,0,-3.644712,-0.006536,-1.254882\H,0,-1.718745,-0.0102
 58,-2.169186\C,0,-4.373185,0.000251,-0.011987\H,0,-4.225377,0.012517,2
 .167689\H,0,-4.206137,-0.012235,-2.189806\H,0,-0.88388,-2.870262,0.035
 864\H,0,3.472841,-2.782096,0.031569\H,0,-0.881431,2.872089,0.031451\H,
 0,3.475208,2.780204,0.027481\N,0,-5.685847,-0.00003,-0.018537\H,0,-6.2
 04775,-0.005039,-0.894903\H,0,-6.213769,0.004755,0.852435\\Version=ES6
 4L-G16RevC.01\State=1-A\HF=-966.7130246\RMSD=2.370e-09\Dipole=-5.71463
 77,0.0004754,0.0680842\Quadrupole=14.0290112,-1.6481809,-12.3808303,0.
 0127955,0.5046538,0.0361819\PG=C01 [X(C15H12B1F2N3)]\\@
 The archive entry for this job was punched.


 The arm of the moral universe is long, but it bends toward justice.
 -- Martin Luther King, Jr.
 Job cpu time:       0 days  0 hours 29 minutes 46.4 seconds.
 Elapsed time:       0 days  0 hours  0 minutes 58.0 seconds.
 File lengths (MBytes):  RWF=    501 Int=      0 D2E=      0 Chk=     25 Scr=      1
 Normal termination of Gaussian 16 at Fri Oct 10 16:37:27 2025.
