 Entering Gaussian System, Link 0=g16
 Initial command:
 /home/users/sutd/syedalia/Softwares//g16/l1.exe "/scratch/users/sutd/syedalia/1005737_data/g16_scratch/Gau-788288.inp" -scrdir="/scratch/users/sutd/syedalia/1005737_data/g16_scratch/"
 Entering Link 1 = /home/users/sutd/syedalia/Softwares//g16/l1.exe PID=    788289.
  
 Copyright (c) 1988-2019, Gaussian, Inc.  All Rights Reserved.
  
 This is part of the Gaussian(R) 16 program.  It is based on
 the Gaussian(R) 09 system (copyright 2009, Gaussian, Inc.),
 the Gaussian(R) 03 system (copyright 2003, Gaussian, Inc.),
 the Gaussian(R) 98 system (copyright 1998, Gaussian, Inc.),
 the Gaussian(R) 94 system (copyright 1995, Gaussian, Inc.),
 the Gaussian 92(TM) system (copyright 1992, Gaussian, Inc.),
 the Gaussian 90(TM) system (copyright 1990, Gaussian, Inc.),
 the Gaussian 88(TM) system (copyright 1988, Gaussian, Inc.),
 the Gaussian 86(TM) system (copyright 1986, Carnegie Mellon
 University), and the Gaussian 82(TM) system (copyright 1983,
 Carnegie Mellon University). Gaussian is a federally registered
 trademark of Gaussian, Inc.
  
 This software contains proprietary and confidential information,
 including trade secrets, belonging to Gaussian, Inc.
  
 This software is provided under written license and may be
 used, copied, transmitted, or stored only in accord with that
 written license.
  
 The following legend is applicable only to US Government
 contracts under FAR:
  
                    RESTRICTED RIGHTS LEGEND
  
 Use, reproduction and disclosure by the US Government is
 subject to restrictions as set forth in subparagraphs (a)
 and (c) of the Commercial Computer Software - Restricted
 Rights clause in FAR 52.227-19.
  
 Gaussian, Inc.
 340 Quinnipiac St., Bldg. 40, Wallingford CT 06492
  
  
 ---------------------------------------------------------------
 Warning -- This program may not be used in any manner that
 competes with the business of Gaussian, Inc. or will provide
 assistance to any competitor of Gaussian, Inc.  The licensee
 of this program is prohibited from giving any competitor of
 Gaussian, Inc. access to this program.  By using this program,
 the user acknowledges that Gaussian, Inc. is engaged in the
 business of creating and licensing software in the field of
 computational chemistry and represents and warrants to the
 licensee that it is not a competitor of Gaussian, Inc. and that
 it will not use this program in any manner prohibited above.
 ---------------------------------------------------------------
  

 Cite this work as:
 Gaussian 16, Revision C.01,
 M. J. Frisch, G. W. Trucks, H. B. Schlegel, G. E. Scuseria, 
 M. A. Robb, J. R. Cheeseman, G. Scalmani, V. Barone, 
 G. A. Petersson, H. Nakatsuji, X. Li, M. Caricato, A. V. Marenich, 
 J. Bloino, B. G. Janesko, R. Gomperts, B. Mennucci, H. P. Hratchian, 
 J. V. Ortiz, A. F. Izmaylov, J. L. Sonnenberg, D. Williams-Young, 
 F. Ding, F. Lipparini, F. Egidi, J. Goings, B. Peng, A. Petrone, 
 T. Henderson, D. Ranasinghe, V. G. Zakrzewski, J. Gao, N. Rega, 
 G. Zheng, W. Liang, M. Hada, M. Ehara, K. Toyota, R. Fukuda, 
 J. Hasegawa, M. Ishida, T. Nakajima, Y. Honda, O. Kitao, H. Nakai, 
 T. Vreven, K. Throssell, J. A. Montgomery, Jr., J. E. Peralta, 
 F. Ogliaro, M. J. Bearpark, J. J. Heyd, E. N. Brothers, K. N. Kudin, 
 V. N. Staroverov, T. A. Keith, R. Kobayashi, J. Normand, 
 K. Raghavachari, A. P. Rendell, J. C. Burant, S. S. Iyengar, 
 J. Tomasi, M. Cossi, J. M. Millam, M. Klene, C. Adamo, R. Cammi, 
 J. W. Ochterski, R. L. Martin, K. Morokuma, O. Farkas, 
 J. B. Foresman, and D. J. Fox, Gaussian, Inc., Wallingford CT, 2019.
 
 ******************************************
 Gaussian 16:  ES64L-G16RevC.01  3-Jul-2019
                 7-Oct-2024 
 ******************************************
 %nprocshared=64
 Will use up to   64 processors via shared memory.
 %mem=128GB
 %chk=04BN-1_ethanol_m062x_b3lyp_m062x.chk
 ----------------------------------------------------------------------
 # opt freq td=(nstates=3,root=2) b3lyp scrf=(smd,solvent=ethanol) def2
 svp
 ----------------------------------------------------------------------
 1/18=20,19=15,26=3,38=1/1,3;
 2/9=110,12=2,17=6,18=5,40=1/2;
 3/5=43,7=101,11=9,25=1,30=1,70=32201,71=1,72=4,74=-5/1,2,3,8;
 4//1;
 5/5=2,38=5,53=4/2;
 8/6=1,10=1,107=2,108=3/1;
 9/8=2,15=2,41=3,42=1,70=2/14;
 10/5=4,28=2/2;
 6/7=2,8=2,9=2,10=2/1;
 7/12=6,13=5,14=2/1,2,3,16;
 1/18=20,19=15,26=3/3(2);
 2/9=110/2;
 99//99;
 2/9=110/2;
 3/5=43,7=101,11=9,25=1,30=1,70=32205,71=1,72=4,74=-5/1,2,3,8;
 4/5=5,16=3,69=1/1;
 5/5=2,38=5,53=4/2;
 8/6=1,10=1,107=2,108=3/1;
 9/8=2,15=2,41=3,42=1,49=4,70=2/14;
 10/5=4,28=2/2;
 7/12=6,13=5,14=2/1,2,3,16;
 1/18=20,19=15,26=3/3(-8);
 2/9=110/2;
 6/7=2,8=2,9=2,10=2/1;
 99/9=10/99;
 -------------------------
 naphNHC2N_III_wB97XD_EtOH
 -------------------------
 Symbolic Z-matrix:
 Charge =  0 Multiplicity = 1
 O                    -2.87145  -2.49251  -0.69315 
 C                     0.98387   0.47622  -0.52466 
 C                     1.89038  -0.64773  -0.43674 
 O                    -3.62455   1.96174  -0.77157 
 N                     3.23329  -0.42776  -0.3502 
 H                     3.55323   0.49364  -0.06208 
 C                    -0.91711  -1.11762  -0.60081 
 N                    -3.1843   -0.2502   -0.71175 
 C                    -0.42093   0.21725  -0.59316 
 C                     1.36184  -1.96187  -0.4618 
 H                     2.03995  -2.81372  -0.40441 
 C                    -1.33358   1.32602  -0.65991 
 C                    -0.84979   2.6683   -0.66646 
 H                    -1.55226   3.50242  -0.71635 
 C                     0.52182   2.89191  -0.61833 
 H                     0.90109   3.91733  -0.63772 
 C                    -2.70977   1.03207  -0.71804 
 C                     1.43007   1.83009  -0.55197 
 H                     2.49632   2.05978  -0.54156 
 C                    -2.33463  -1.37143  -0.66609 
 C                     4.2279   -1.45851  -0.13063 
 H                     4.18081  -2.21865  -0.92832 
 H                     4.04852  -1.99479   0.82158 
 C                    -4.64852  -0.47729  -0.76434 
 H                    -4.81081  -1.33366  -1.43202 
 H                    -5.09182   0.41188  -1.24321 
 C                    -0.00253  -2.19307  -0.54458 
 H                    -0.38491  -3.21551  -0.55573 
 C                     5.62292  -0.83325  -0.15022 
 C                    -5.29585  -0.73776   0.59773 
 H                    -6.35726  -0.96815   0.3971 
 H                    -4.85925  -1.65395   1.03009 
 C                    -5.20496   0.40831   1.6088 
 H                    -5.62734   1.3255    1.16118 
 H                    -4.14521   0.63167   1.82481 
 C                    -5.92691   0.09696   2.91963 
 H                    -5.50544  -0.79864   3.40755 
 H                    -7.00114  -0.09266   2.75256 
 H                    -5.84369   0.93381   3.63243 
 H                     6.36806  -1.62954   0.07041 
 N                     5.75243   0.30973   0.74994 
 H                     5.82878  -0.4766   -1.17242 
 C                     5.72564  -0.06506   2.15631 
 H                     4.79368  -0.59381   2.4072 
 H                     6.57719  -0.72268   2.44338 
 H                     5.77239   0.83763   2.78587 
 C                     6.92314   1.11539   0.43879 
 H                     6.89027   1.44974  -0.61025 
 H                     6.94779   2.0109    1.08039 
 H                     7.88121   0.56827   0.59007 
 

 GradGradGradGradGradGradGradGradGradGradGradGradGradGradGradGradGradGrad
 Berny optimization.
 Initialization pass.
                           ----------------------------
                           !    Initial Parameters    !
                           ! (Angstroms and Degrees)  !
 --------------------------                            --------------------------
 ! Name  Definition              Value          Derivative Info.                !
 --------------------------------------------------------------------------------
 ! R1    R(1,20)                 1.2433         estimate D2E/DX2                !
 ! R2    R(2,3)                  1.4466         estimate D2E/DX2                !
 ! R3    R(2,9)                  1.4301         estimate D2E/DX2                !
 ! R4    R(2,18)                 1.4258         estimate D2E/DX2                !
 ! R5    R(3,5)                  1.3636         estimate D2E/DX2                !
 ! R6    R(3,10)                 1.4167         estimate D2E/DX2                !
 ! R7    R(4,17)                 1.3054         estimate D2E/DX2                !
 ! R8    R(5,6)                  1.017          estimate D2E/DX2                !
 ! R9    R(5,21)                 1.4491         estimate D2E/DX2                !
 ! R10   R(7,9)                  1.4241         estimate D2E/DX2                !
 ! R11   R(7,20)                 1.4415         estimate D2E/DX2                !
 ! R12   R(7,27)                 1.4129         estimate D2E/DX2                !
 ! R13   R(8,17)                 1.3673         estimate D2E/DX2                !
 ! R14   R(8,20)                 1.4075         estimate D2E/DX2                !
 ! R15   R(8,24)                 1.4827         estimate D2E/DX2                !
 ! R16   R(9,12)                 1.4376         estimate D2E/DX2                !
 ! R17   R(10,11)                1.0903         estimate D2E/DX2                !
 ! R18   R(10,27)                1.3863         estimate D2E/DX2                !
 ! R19   R(12,13)                1.4268         estimate D2E/DX2                !
 ! R20   R(12,17)                1.4084         estimate D2E/DX2                !
 ! R21   R(13,14)                1.0917         estimate D2E/DX2                !
 ! R22   R(13,15)                1.3905         estimate D2E/DX2                !
 ! R23   R(15,16)                1.0935         estimate D2E/DX2                !
 ! R24   R(15,18)                1.3989         estimate D2E/DX2                !
 ! R25   R(18,19)                1.0908         estimate D2E/DX2                !
 ! R26   R(21,22)                1.1029         estimate D2E/DX2                !
 ! R27   R(21,23)                1.1075         estimate D2E/DX2                !
 ! R28   R(21,29)                1.5289         estimate D2E/DX2                !
 ! R29   R(24,25)                1.098          estimate D2E/DX2                !
 ! R30   R(24,26)                1.1029         estimate D2E/DX2                !
 ! R31   R(24,30)                1.5304         estimate D2E/DX2                !
 ! R32   R(27,28)                1.0917         estimate D2E/DX2                !
 ! R33   R(29,40)                1.1126         estimate D2E/DX2                !
 ! R34   R(29,41)                1.4606         estimate D2E/DX2                !
 ! R35   R(29,42)                1.102          estimate D2E/DX2                !
 ! R36   R(30,31)                1.1045         estimate D2E/DX2                !
 ! R37   R(30,32)                1.1032         estimate D2E/DX2                !
 ! R38   R(30,33)                1.531          estimate D2E/DX2                !
 ! R39   R(33,34)                1.1045         estimate D2E/DX2                !
 ! R40   R(33,35)                1.1044         estimate D2E/DX2                !
 ! R41   R(33,36)                1.5285         estimate D2E/DX2                !
 ! R42   R(36,37)                1.1035         estimate D2E/DX2                !
 ! R43   R(36,38)                1.1036         estimate D2E/DX2                !
 ! R44   R(36,39)                1.1024         estimate D2E/DX2                !
 ! R45   R(41,43)                1.4557         estimate D2E/DX2                !
 ! R46   R(41,47)                1.4548         estimate D2E/DX2                !
 ! R47   R(43,44)                1.1005         estimate D2E/DX2                !
 ! R48   R(43,45)                1.1136         estimate D2E/DX2                !
 ! R49   R(43,46)                1.1015         estimate D2E/DX2                !
 ! R50   R(47,48)                1.1015         estimate D2E/DX2                !
 ! R51   R(47,49)                1.1019         estimate D2E/DX2                !
 ! R52   R(47,50)                1.1136         estimate D2E/DX2                !
 ! A1    A(3,2,9)              118.5394         estimate D2E/DX2                !
 ! A2    A(3,2,18)             122.8755         estimate D2E/DX2                !
 ! A3    A(9,2,18)             118.5845         estimate D2E/DX2                !
 ! A4    A(2,3,5)              119.7141         estimate D2E/DX2                !
 ! A5    A(2,3,10)             119.0677         estimate D2E/DX2                !
 ! A6    A(5,3,10)             121.2119         estimate D2E/DX2                !
 ! A7    A(3,5,6)              118.2913         estimate D2E/DX2                !
 ! A8    A(3,5,21)             124.8088         estimate D2E/DX2                !
 ! A9    A(6,5,21)             112.6792         estimate D2E/DX2                !
 ! A10   A(9,7,20)             120.5227         estimate D2E/DX2                !
 ! A11   A(9,7,27)             119.1912         estimate D2E/DX2                !
 ! A12   A(20,7,27)            120.286          estimate D2E/DX2                !
 ! A13   A(17,8,20)            122.5273         estimate D2E/DX2                !
 ! A14   A(17,8,24)            119.093          estimate D2E/DX2                !
 ! A15   A(20,8,24)            118.3782         estimate D2E/DX2                !
 ! A16   A(2,9,7)              120.813          estimate D2E/DX2                !
 ! A17   A(2,9,12)             119.0881         estimate D2E/DX2                !
 ! A18   A(7,9,12)             120.0984         estimate D2E/DX2                !
 ! A19   A(3,10,11)            119.4569         estimate D2E/DX2                !
 ! A20   A(3,10,27)            121.53           estimate D2E/DX2                !
 ! A21   A(11,10,27)           119.01           estimate D2E/DX2                !
 ! A22   A(9,12,13)            120.6983         estimate D2E/DX2                !
 ! A23   A(9,12,17)            117.4678         estimate D2E/DX2                !
 ! A24   A(13,12,17)           121.8339         estimate D2E/DX2                !
 ! A25   A(12,13,14)           120.0552         estimate D2E/DX2                !
 ! A26   A(12,13,15)           119.05           estimate D2E/DX2                !
 ! A27   A(14,13,15)           120.8931         estimate D2E/DX2                !
 ! A28   A(13,15,16)           119.4926         estimate D2E/DX2                !
 ! A29   A(13,15,18)           121.3335         estimate D2E/DX2                !
 ! A30   A(16,15,18)           119.1732         estimate D2E/DX2                !
 ! A31   A(4,17,8)             115.1437         estimate D2E/DX2                !
 ! A32   A(4,17,12)            122.5336         estimate D2E/DX2                !
 ! A33   A(8,17,12)            122.3208         estimate D2E/DX2                !
 ! A34   A(2,18,15)            121.2317         estimate D2E/DX2                !
 ! A35   A(2,18,19)            120.3774         estimate D2E/DX2                !
 ! A36   A(15,18,19)           118.3797         estimate D2E/DX2                !
 ! A37   A(1,20,7)             125.7558         estimate D2E/DX2                !
 ! A38   A(1,20,8)             117.1899         estimate D2E/DX2                !
 ! A39   A(7,20,8)             117.053          estimate D2E/DX2                !
 ! A40   A(5,21,22)            110.5702         estimate D2E/DX2                !
 ! A41   A(5,21,23)            111.3184         estimate D2E/DX2                !
 ! A42   A(5,21,29)            109.4773         estimate D2E/DX2                !
 ! A43   A(22,21,23)           106.3327         estimate D2E/DX2                !
 ! A44   A(22,21,29)           108.1535         estimate D2E/DX2                !
 ! A45   A(23,21,29)           110.9069         estimate D2E/DX2                !
 ! A46   A(8,24,25)            106.6787         estimate D2E/DX2                !
 ! A47   A(8,24,26)            106.7892         estimate D2E/DX2                !
 ! A48   A(8,24,30)            114.3444         estimate D2E/DX2                !
 ! A49   A(25,24,26)           107.7801         estimate D2E/DX2                !
 ! A50   A(25,24,30)           110.2405         estimate D2E/DX2                !
 ! A51   A(26,24,30)           110.7091         estimate D2E/DX2                !
 ! A52   A(7,27,10)            120.8317         estimate D2E/DX2                !
 ! A53   A(7,27,28)            119.0631         estimate D2E/DX2                !
 ! A54   A(10,27,28)           120.1015         estimate D2E/DX2                !
 ! A55   A(21,29,40)           108.4117         estimate D2E/DX2                !
 ! A56   A(21,29,41)           113.1434         estimate D2E/DX2                !
 ! A57   A(21,29,42)           108.3421         estimate D2E/DX2                !
 ! A58   A(40,29,41)           112.2375         estimate D2E/DX2                !
 ! A59   A(40,29,42)           106.8846         estimate D2E/DX2                !
 ! A60   A(41,29,42)           107.5669         estimate D2E/DX2                !
 ! A61   A(24,30,31)           106.279          estimate D2E/DX2                !
 ! A62   A(24,30,32)           108.8301         estimate D2E/DX2                !
 ! A63   A(24,30,33)           115.8008         estimate D2E/DX2                !
 ! A64   A(31,30,32)           106.1578         estimate D2E/DX2                !
 ! A65   A(31,30,33)           109.4606         estimate D2E/DX2                !
 ! A66   A(32,30,33)           109.8388         estimate D2E/DX2                !
 ! A67   A(30,33,34)           109.3459         estimate D2E/DX2                !
 ! A68   A(30,33,35)           109.7273         estimate D2E/DX2                !
 ! A69   A(30,33,36)           112.6943         estimate D2E/DX2                !
 ! A70   A(34,33,35)           106.1568         estimate D2E/DX2                !
 ! A71   A(34,33,36)           109.6374         estimate D2E/DX2                !
 ! A72   A(35,33,36)           109.0682         estimate D2E/DX2                !
 ! A73   A(33,36,37)           111.3519         estimate D2E/DX2                !
 ! A74   A(33,36,38)           111.4037         estimate D2E/DX2                !
 ! A75   A(33,36,39)           111.3591         estimate D2E/DX2                !
 ! A76   A(37,36,38)           107.4134         estimate D2E/DX2                !
 ! A77   A(37,36,39)           107.539          estimate D2E/DX2                !
 ! A78   A(38,36,39)           107.5651         estimate D2E/DX2                !
 ! A79   A(29,41,43)           113.0967         estimate D2E/DX2                !
 ! A80   A(29,41,47)           111.8944         estimate D2E/DX2                !
 ! A81   A(43,41,47)           111.3475         estimate D2E/DX2                !
 ! A82   A(41,43,44)           111.0727         estimate D2E/DX2                !
 ! A83   A(41,43,45)           112.77           estimate D2E/DX2                !
 ! A84   A(41,43,46)           109.9008         estimate D2E/DX2                !
 ! A85   A(44,43,45)           107.7637         estimate D2E/DX2                !
 ! A86   A(44,43,46)           107.4201         estimate D2E/DX2                !
 ! A87   A(45,43,46)           107.7072         estimate D2E/DX2                !
 ! A88   A(41,47,48)           110.3506         estimate D2E/DX2                !
 ! A89   A(41,47,49)           110.0918         estimate D2E/DX2                !
 ! A90   A(41,47,50)           113.0286         estimate D2E/DX2                !
 ! A91   A(48,47,49)           107.9689         estimate D2E/DX2                !
 ! A92   A(48,47,50)           107.709          estimate D2E/DX2                !
 ! A93   A(49,47,50)           107.5141         estimate D2E/DX2                !
 ! D1    D(9,2,3,5)           -179.0282         estimate D2E/DX2                !
 ! D2    D(9,2,3,10)             1.8703         estimate D2E/DX2                !
 ! D3    D(18,2,3,5)             1.2582         estimate D2E/DX2                !
 ! D4    D(18,2,3,10)         -177.8433         estimate D2E/DX2                !
 ! D5    D(3,2,9,7)             -1.1955         estimate D2E/DX2                !
 ! D6    D(3,2,9,12)           179.0442         estimate D2E/DX2                !
 ! D7    D(18,2,9,7)           178.5306         estimate D2E/DX2                !
 ! D8    D(18,2,9,12)           -1.2297         estimate D2E/DX2                !
 ! D9    D(3,2,18,15)         -179.0749         estimate D2E/DX2                !
 ! D10   D(3,2,18,19)            2.1623         estimate D2E/DX2                !
 ! D11   D(9,2,18,15)            1.2116         estimate D2E/DX2                !
 ! D12   D(9,2,18,19)         -177.5512         estimate D2E/DX2                !
 ! D13   D(2,3,5,6)             18.6854         estimate D2E/DX2                !
 ! D14   D(2,3,5,21)           173.8501         estimate D2E/DX2                !
 ! D15   D(10,3,5,6)          -162.2328         estimate D2E/DX2                !
 ! D16   D(10,3,5,21)           -7.0681         estimate D2E/DX2                !
 ! D17   D(2,3,10,11)          179.4868         estimate D2E/DX2                !
 ! D18   D(2,3,10,27)           -1.1584         estimate D2E/DX2                !
 ! D19   D(5,3,10,11)            0.3992         estimate D2E/DX2                !
 ! D20   D(5,3,10,27)          179.7539         estimate D2E/DX2                !
 ! D21   D(3,5,21,22)           58.6697         estimate D2E/DX2                !
 ! D22   D(3,5,21,23)          -59.2921         estimate D2E/DX2                !
 ! D23   D(3,5,21,29)          177.7286         estimate D2E/DX2                !
 ! D24   D(6,5,21,22)         -144.9606         estimate D2E/DX2                !
 ! D25   D(6,5,21,23)           97.0776         estimate D2E/DX2                !
 ! D26   D(6,5,21,29)          -25.9017         estimate D2E/DX2                !
 ! D27   D(20,7,9,2)           179.8186         estimate D2E/DX2                !
 ! D28   D(20,7,9,12)           -0.4235         estimate D2E/DX2                !
 ! D29   D(27,7,9,2)            -0.2277         estimate D2E/DX2                !
 ! D30   D(27,7,9,12)          179.5302         estimate D2E/DX2                !
 ! D31   D(9,7,20,1)           179.1584         estimate D2E/DX2                !
 ! D32   D(9,7,20,8)            -0.411          estimate D2E/DX2                !
 ! D33   D(27,7,20,1)           -0.7948         estimate D2E/DX2                !
 ! D34   D(27,7,20,8)          179.6358         estimate D2E/DX2                !
 ! D35   D(9,7,27,10)            0.9982         estimate D2E/DX2                !
 ! D36   D(9,7,27,28)         -179.6894         estimate D2E/DX2                !
 ! D37   D(20,7,27,10)        -179.048          estimate D2E/DX2                !
 ! D38   D(20,7,27,28)           0.2644         estimate D2E/DX2                !
 ! D39   D(20,8,17,4)          179.5637         estimate D2E/DX2                !
 ! D40   D(20,8,17,12)          -0.9298         estimate D2E/DX2                !
 ! D41   D(24,8,17,4)            0.0005         estimate D2E/DX2                !
 ! D42   D(24,8,17,12)         179.5069         estimate D2E/DX2                !
 ! D43   D(17,8,20,1)         -178.5145         estimate D2E/DX2                !
 ! D44   D(17,8,20,7)            1.0926         estimate D2E/DX2                !
 ! D45   D(24,8,20,1)            1.0517         estimate D2E/DX2                !
 ! D46   D(24,8,20,7)         -179.3412         estimate D2E/DX2                !
 ! D47   D(17,8,24,25)         139.9146         estimate D2E/DX2                !
 ! D48   D(17,8,24,26)          24.8674         estimate D2E/DX2                !
 ! D49   D(17,8,24,30)         -97.9474         estimate D2E/DX2                !
 ! D50   D(20,8,24,25)         -39.6668         estimate D2E/DX2                !
 ! D51   D(20,8,24,26)        -154.714          estimate D2E/DX2                !
 ! D52   D(20,8,24,30)          82.4712         estimate D2E/DX2                !
 ! D53   D(2,9,12,13)            0.3877         estimate D2E/DX2                !
 ! D54   D(2,9,12,17)         -179.6214         estimate D2E/DX2                !
 ! D55   D(7,9,12,13)         -179.3743         estimate D2E/DX2                !
 ! D56   D(7,9,12,17)            0.6166         estimate D2E/DX2                !
 ! D57   D(3,10,27,7)           -0.297          estimate D2E/DX2                !
 ! D58   D(3,10,27,28)        -179.6023         estimate D2E/DX2                !
 ! D59   D(11,10,27,7)         179.0605         estimate D2E/DX2                !
 ! D60   D(11,10,27,28)         -0.2448         estimate D2E/DX2                !
 ! D61   D(9,12,13,14)        -179.9349         estimate D2E/DX2                !
 ! D62   D(9,12,13,15)           0.5232         estimate D2E/DX2                !
 ! D63   D(17,12,13,14)          0.0745         estimate D2E/DX2                !
 ! D64   D(17,12,13,15)       -179.4674         estimate D2E/DX2                !
 ! D65   D(9,12,17,4)          179.5092         estimate D2E/DX2                !
 ! D66   D(9,12,17,8)            0.0391         estimate D2E/DX2                !
 ! D67   D(13,12,17,4)          -0.5            estimate D2E/DX2                !
 ! D68   D(13,12,17,8)        -179.97           estimate D2E/DX2                !
 ! D69   D(12,13,15,16)        179.1129         estimate D2E/DX2                !
 ! D70   D(12,13,15,18)         -0.5728         estimate D2E/DX2                !
 ! D71   D(14,13,15,16)         -0.4251         estimate D2E/DX2                !
 ! D72   D(14,13,15,18)        179.8893         estimate D2E/DX2                !
 ! D73   D(13,15,18,2)          -0.3024         estimate D2E/DX2                !
 ! D74   D(13,15,18,19)        178.4845         estimate D2E/DX2                !
 ! D75   D(16,15,18,2)        -179.989          estimate D2E/DX2                !
 ! D76   D(16,15,18,19)         -1.2021         estimate D2E/DX2                !
 ! D77   D(5,21,29,40)         177.1981         estimate D2E/DX2                !
 ! D78   D(5,21,29,41)          52.0245         estimate D2E/DX2                !
 ! D79   D(5,21,29,42)         -67.1526         estimate D2E/DX2                !
 ! D80   D(22,21,29,40)        -62.26           estimate D2E/DX2                !
 ! D81   D(22,21,29,41)        172.5663         estimate D2E/DX2                !
 ! D82   D(22,21,29,42)         53.3893         estimate D2E/DX2                !
 ! D83   D(23,21,29,40)         53.9752         estimate D2E/DX2                !
 ! D84   D(23,21,29,41)        -71.1985         estimate D2E/DX2                !
 ! D85   D(23,21,29,42)        169.6244         estimate D2E/DX2                !
 ! D86   D(8,24,30,31)        -175.5122         estimate D2E/DX2                !
 ! D87   D(8,24,30,32)         -61.5657         estimate D2E/DX2                !
 ! D88   D(8,24,30,33)          62.7066         estimate D2E/DX2                !
 ! D89   D(25,24,30,31)        -55.3413         estimate D2E/DX2                !
 ! D90   D(25,24,30,32)         58.6052         estimate D2E/DX2                !
 ! D91   D(25,24,30,33)       -177.1225         estimate D2E/DX2                !
 ! D92   D(26,24,30,31)         63.8247         estimate D2E/DX2                !
 ! D93   D(26,24,30,32)        177.7712         estimate D2E/DX2                !
 ! D94   D(26,24,30,33)        -57.9565         estimate D2E/DX2                !
 ! D95   D(21,29,41,43)         70.0457         estimate D2E/DX2                !
 ! D96   D(21,29,41,47)       -163.2348         estimate D2E/DX2                !
 ! D97   D(40,29,41,43)        -53.0367         estimate D2E/DX2                !
 ! D98   D(40,29,41,47)         73.6828         estimate D2E/DX2                !
 ! D99   D(42,29,41,43)       -170.3314         estimate D2E/DX2                !
 ! D100  D(42,29,41,47)        -43.6119         estimate D2E/DX2                !
 ! D101  D(24,30,33,34)         55.2302         estimate D2E/DX2                !
 ! D102  D(24,30,33,35)        -60.8231         estimate D2E/DX2                !
 ! D103  D(24,30,33,36)        177.4313         estimate D2E/DX2                !
 ! D104  D(31,30,33,34)        -64.8385         estimate D2E/DX2                !
 ! D105  D(31,30,33,35)        179.1082         estimate D2E/DX2                !
 ! D106  D(31,30,33,36)         57.3626         estimate D2E/DX2                !
 ! D107  D(32,30,33,34)        178.9779         estimate D2E/DX2                !
 ! D108  D(32,30,33,35)         62.9247         estimate D2E/DX2                !
 ! D109  D(32,30,33,36)        -58.8209         estimate D2E/DX2                !
 ! D110  D(30,33,36,37)         59.7147         estimate D2E/DX2                !
 ! D111  D(30,33,36,38)        -60.1764         estimate D2E/DX2                !
 ! D112  D(30,33,36,39)        179.735          estimate D2E/DX2                !
 ! D113  D(34,33,36,37)       -178.2485         estimate D2E/DX2                !
 ! D114  D(34,33,36,38)         61.8604         estimate D2E/DX2                !
 ! D115  D(34,33,36,39)        -58.2282         estimate D2E/DX2                !
 ! D116  D(35,33,36,37)        -62.4033         estimate D2E/DX2                !
 ! D117  D(35,33,36,38)        177.7057         estimate D2E/DX2                !
 ! D118  D(35,33,36,39)         57.617          estimate D2E/DX2                !
 ! D119  D(29,41,43,44)        -58.2543         estimate D2E/DX2                !
 ! D120  D(29,41,43,45)         62.8319         estimate D2E/DX2                !
 ! D121  D(29,41,43,46)       -176.9852         estimate D2E/DX2                !
 ! D122  D(47,41,43,44)        174.7372         estimate D2E/DX2                !
 ! D123  D(47,41,43,45)        -64.1766         estimate D2E/DX2                !
 ! D124  D(47,41,43,46)         56.0062         estimate D2E/DX2                !
 ! D125  D(29,41,47,48)         56.3777         estimate D2E/DX2                !
 ! D126  D(29,41,47,49)        175.4581         estimate D2E/DX2                !
 ! D127  D(29,41,47,50)        -64.2987         estimate D2E/DX2                !
 ! D128  D(43,41,47,48)       -175.961          estimate D2E/DX2                !
 ! D129  D(43,41,47,49)        -56.8806         estimate D2E/DX2                !
 ! D130  D(43,41,47,50)         63.3626         estimate D2E/DX2                !
 --------------------------------------------------------------------------------
 Trust Radius=3.00D-01 FncErr=1.00D-07 GrdErr=1.00D-06 EigMax=2.50D+02 EigMin=1.00D-04
 Number of steps in this run=    285 maximum allowed number of steps=    300.
 GradGradGradGradGradGradGradGradGradGradGradGradGradGradGradGradGradGrad

                          Input orientation:                          
 ---------------------------------------------------------------------
 Center     Atomic      Atomic             Coordinates (Angstroms)
 Number     Number       Type             X           Y           Z
 ---------------------------------------------------------------------
      1          8           0       -2.871445   -2.492506   -0.693149
      2          6           0        0.983867    0.476220   -0.524661
      3          6           0        1.890381   -0.647725   -0.436736
      4          8           0       -3.624545    1.961743   -0.771570
      5          7           0        3.233288   -0.427760   -0.350195
      6          1           0        3.553233    0.493635   -0.062077
      7          6           0       -0.917111   -1.117620   -0.600811
      8          7           0       -3.184303   -0.250199   -0.711745
      9          6           0       -0.420934    0.217245   -0.593157
     10          6           0        1.361836   -1.961874   -0.461797
     11          1           0        2.039955   -2.813719   -0.404408
     12          6           0       -1.333583    1.326019   -0.659906
     13          6           0       -0.849790    2.668300   -0.666464
     14          1           0       -1.552262    3.502418   -0.716347
     15          6           0        0.521815    2.891911   -0.618333
     16          1           0        0.901091    3.917327   -0.637723
     17          6           0       -2.709771    1.032072   -0.718035
     18          6           0        1.430068    1.830092   -0.551969
     19          1           0        2.496321    2.059775   -0.541557
     20          6           0       -2.334628   -1.371428   -0.666090
     21          6           0        4.227895   -1.458511   -0.130625
     22          1           0        4.180805   -2.218652   -0.928317
     23          1           0        4.048517   -1.994789    0.821583
     24          6           0       -4.648521   -0.477293   -0.764338
     25          1           0       -4.810806   -1.333663   -1.432018
     26          1           0       -5.091821    0.411877   -1.243207
     27          6           0       -0.002531   -2.193066   -0.544579
     28          1           0       -0.384905   -3.215512   -0.555731
     29          6           0        5.622924   -0.833253   -0.150218
     30          6           0       -5.295854   -0.737757    0.597732
     31          1           0       -6.357265   -0.968151    0.397103
     32          1           0       -4.859253   -1.653948    1.030091
     33          6           0       -5.204960    0.408308    1.608798
     34          1           0       -5.627337    1.325501    1.161178
     35          1           0       -4.145214    0.631673    1.824806
     36          6           0       -5.926908    0.096955    2.919627
     37          1           0       -5.505444   -0.798641    3.407549
     38          1           0       -7.001143   -0.092658    2.752563
     39          1           0       -5.843694    0.933806    3.632430
     40          1           0        6.368055   -1.629536    0.070413
     41          7           0        5.752432    0.309733    0.749936
     42          1           0        5.828784   -0.476602   -1.172417
     43          6           0        5.725636   -0.065062    2.156308
     44          1           0        4.793676   -0.593811    2.407203
     45          1           0        6.577192   -0.722678    2.443381
     46          1           0        5.772386    0.837627    2.785871
     47          6           0        6.923144    1.115386    0.438787
     48          1           0        6.890267    1.449741   -0.610248
     49          1           0        6.947789    2.010902    1.080388
     50          1           0        7.881207    0.568267    0.590067
 ---------------------------------------------------------------------
                    Distance matrix (angstroms):
                    1          2          3          4          5
     1  O    0.000000
     2  C    4.868794   0.000000
     3  C    5.113116   1.446634   0.000000
     4  O    4.518146   4.848217   6.110307   0.000000
     5  N    6.453569   2.430538   1.363552   7.274418   0.000000
     6  H    7.112790   2.610733   2.051377   7.360653   1.017028
     7  C    2.391288   2.481903   2.851269   4.103880   4.214799
     8  N    2.264104   4.235130   5.097654   2.256120   6.430219
     9  C    3.654826   1.430114   2.472816   3.652154   3.718656
    10  C    4.272676   2.468018   1.416678   6.352537   2.422456
    11  H    4.930355   3.457381   2.171393   7.417979   2.668292
    12  C    4.116705   2.472049   3.786742   2.380151   4.901834
    13  C    5.542718   2.861402   4.307822   2.865229   5.133920
    14  H    6.138395   3.953045   5.399413   2.582845   6.203375
    15  C    6.364885   2.461266   3.799339   4.252175   4.294671
    16  H    7.437813   3.443959   4.675339   4.931897   4.939797
    17  C    3.528372   3.740231   4.905328   1.305360   6.130772
    18  C    6.099820   1.425767   2.522844   5.061094   2.896586
    19  H    7.039826   2.189851   2.776456   6.125971   2.601455
    20  C    1.243270   3.800818   4.292674   3.575618   5.656146
    21  C    7.196263   3.797653   2.493000   8.588933   1.449104
    22  H    7.061482   4.200677   2.820551   8.855719   2.106966
    23  H    7.101268   4.160569   2.838221   8.778847   2.119727
    24  C    2.687778   5.717554   6.549321   2.645274   7.892837
    25  H    2.376966   6.138176   6.809332   3.564142   8.166912
    26  H    3.697036   6.118368   7.108045   2.185732   8.414862
    27  C    2.888322   2.845780   2.445981   5.516607   3.691154
    28  H    2.593165   3.937434   3.432873   6.111123   4.572212
    29  C    8.671920   4.834850   3.748118   9.680587   2.432031
    30  C    3.259337   6.493720   7.260868   3.457682   8.587254
    31  H    3.957682   7.538440   8.295880   4.173468   9.634790
    32  H    2.761180   6.410688   6.980088   4.224181   8.300479
    33  C    4.377097   6.546590   7.459442   3.252234   8.702913
    34  H    5.060696   6.875416   7.934925   2.855082   9.157994
    35  H    4.209879   5.643725   6.571137   2.963334   7.765006
    36  C    5.393822   7.730833   8.539890   4.733207   9.740444
    37  H    5.159734   7.694069   8.336638   5.350003   9.519644
    38  H    5.889534   8.650098   9.462501   5.295422  10.699672
    39  H    6.267736   8.006646   8.881175   5.037509  10.005337
    40  H    9.311074   5.811867   4.612019  10.651679   3.383481
    41  N    9.181846   4.938778   4.152151   9.642189   2.846097
    42  H    8.943576   4.980028   4.010178   9.770959   2.723056
    43  C    9.376657   5.474025   4.666107  10.005313   3.553295
    44  H    8.483590   4.924981   4.064482   9.354245   3.172637
    45  H   10.111719   6.444526   5.501535  11.028031   4.367235
    46  H    9.894907   5.832680   5.259413  10.110457   4.228845
    47  C   10.499149   6.050767   5.404054  10.650588   4.076620
    48  H   10.528020   5.986704   5.424788  10.528506   4.118997
    49  H   10.947304   6.363945   5.911627  10.733425   4.668100
    50  H   11.253200   6.987445   6.198625  11.669540   4.845546
                    6          7          8          9         10
     6  H    0.000000
     7  C    4.782296   0.000000
     8  N    6.809534   2.429997   0.000000
     9  C    4.019010   1.424119   2.805134   0.000000
    10  C    3.315346   2.434274   4.864122   2.818525   0.000000
    11  H    3.653189   3.414611   5.827432   3.908752   1.090311
    12  C    4.993119   2.479579   2.431525   1.437624   4.256145
    13  C    4.947834   3.787088   3.737598   2.489370   5.135337
    14  H    5.962124   4.664924   4.092153   3.476700   6.198004
    15  C    3.905207   4.259948   4.859721   2.836062   4.928424
    16  H    4.368855   5.353309   5.836454   3.929420   5.899851
    17  C    6.320238   2.801526   1.367274   2.432758   5.060371
    18  C    2.556157   3.768374   5.064144   2.455439   3.793652
    19  H    1.949297   4.663783   6.134691   3.450791   4.179363
    20  C    6.205659   1.441539   1.407546   2.488258   3.748894
    21  C    2.066577   5.177680   7.532489   4.963235   2.928710
    22  H    2.915599   5.225732   7.626698   5.217464   2.868826
    23  H    2.686711   5.239283   7.596603   5.183684   2.977650
    24  C    8.288826   3.789483   1.482657   4.287677   6.198379
    25  H    8.670231   3.987285   2.082834   4.730748   6.279927
    26  H    8.725750   4.492242   2.087923   4.719919   6.920620
    27  C    4.482703   1.412870   3.731802   2.446839   1.386290
    28  H    5.432347   2.164816   4.080937   3.433150   2.152100
    29  C    2.460086   6.561704   8.844349   6.150444   4.419020
    30  C    8.958684   4.555677   2.532013   5.108335   6.851708
    31  H   10.028242   5.532942   3.436959   6.133988   7.830052
    32  H    8.750707   4.299764   2.794631   5.082812   6.404881
    33  C    8.916560   5.059296   3.146682   5.269916   7.282028
    34  H    9.298990   5.591035   3.458191   5.604690   7.892365
    35  H    7.927513   4.400488   2.852217   4.459659   6.502510
    36  C    9.945903   6.242335   4.563908   6.532218   8.294492
    37  H    9.786108   6.100942   4.759944   6.549039   7.967715
    38  H   10.938957   7.022187   5.156987   7.388439   9.152349
    39  H   10.106699   6.811747   5.229348   6.911973   8.778799
    40  H    3.528262   7.333911   9.683072   7.066916   5.045386
    41  N    2.351523   6.953032   9.072776   6.318457   5.089777
    42  H    2.711521   6.800348   9.027692   6.314740   4.760739
    43  C    3.154791   7.268815   9.361999   6.739405   5.430941
    44  H    2.969610   6.475771   8.572867   6.070595   4.677636
    45  H    4.111091   8.098621  10.269608   7.686208   6.097180
    46  H    3.626814   7.748676   9.676723   7.082367   6.151220
    47  C    3.463198   8.218070  10.263968   7.470411   6.419402
    48  H    3.514317   8.218673  10.217488   7.414378   6.498054
    49  H    3.889773   8.629643  10.534876   7.766340   7.025963
    50  H    4.377467   9.037190  11.171845   8.393377   7.071791
                   11         12         13         14         15
    11  H    0.000000
    12  C    5.346351   0.000000
    13  C    6.202567   1.426821   0.000000
    14  H    7.272889   2.188086   1.091654   0.000000
    15  C    5.908022   2.428219   1.390546   2.164283   0.000000
    16  H    6.830697   3.421862   2.150925   2.489432   1.093483
    17  C    6.119507   1.408431   2.477788   2.728083   3.729891
    18  C    4.686013   2.811318   2.431759   3.423154   1.398852
    19  H    4.896736   3.901355   3.403287   4.301487   2.144066
    20  C    4.613638   2.877212   4.303969   4.936496   5.132018
    21  C    2.588171   6.242098   6.565103   7.639640   5.735770
    22  H    2.282942   6.560885   7.018387   8.102076   6.293024
    23  H    2.491590   6.495350   6.924745   7.997077   6.196033
    24  C    7.093951   3.775136   4.933021   5.042541   6.172943
    25  H    7.083747   4.445351   5.682555   5.875200   6.852328
    26  H    7.872121   3.911553   4.839308   4.728372   6.168788
    27  C    2.139301   3.764168   4.936151   5.905058   5.112472
    28  H    2.462576   4.640727   5.903188   6.820491   6.174680
    29  C    4.101771   7.301728   7.377222   8.402490   6.333821
    30  C    7.689473   4.641165   5.741681   5.806924   6.964092
    31  H    8.634920   5.622977   6.684851   6.656862   7.953171
    32  H    7.141563   4.915958   6.134812   6.369799   7.234503
    33  C    8.180663   4.580041   5.408501   5.321844   6.627545
    34  H    8.852772   4.663976   5.288510   4.987014   6.590324
    35  H    7.422697   3.815911   4.605876   4.628394   5.732256
    36  C    9.110002   5.951663   6.726737   6.629858   7.868607
    37  H    8.690489   6.201838   7.091712   7.150753   8.133619
    38  H    9.955506   6.766005   7.559880   7.392443   8.767297
    39  H    9.617272   6.238516   6.813812   6.627671   7.900814
    40  H    4.512227   8.281540   8.432773   9.470341   7.422693
    41  N    4.987078   7.296033   7.152507   8.105663   5.991591
    42  H    4.517431   7.403486   7.399307   8.397645   6.310135
    43  C    5.262758   7.726496   7.659996   8.599236   6.597126
    44  H    4.518421   7.115912   7.206768   8.173530   6.289111
    45  H    5.750554   8.741162   8.736700   9.691405   7.688104
    46  H    6.118925   7.912440   7.689161   8.545005   6.586136
    47  C    6.324111   8.332169   8.003226   8.880583   6.726853
    48  H    6.461036   8.224931   7.835594   8.689133   6.529709
    49  H    7.040484   8.489924   8.017849   8.814973   6.704847
    50  H    6.822539   9.330004   9.067487   9.965254   7.811543
                   16         17         18         19         20
    16  H    0.000000
    17  C    4.622712   0.000000
    18  C    2.154929   4.219322   0.000000
    19  H    2.450409   5.309493   1.090760   0.000000
    20  C    6.200130   2.433155   4.943247   5.926781   0.000000
    21  C    6.342271   7.394543   4.338234   3.942785   6.584908
    22  H    6.963563   7.621776   4.909228   4.614326   6.575517
    23  H    6.854851   7.563516   4.834525   4.550489   6.583790
    24  C    7.080036   2.457454   6.505257   7.585190   2.482586
    25  H    7.799331   3.243582   7.052116   8.105705   2.592206
    26  H    6.969203   2.516865   6.710006   7.796652   3.333970
    27  C    6.177549   4.214351   4.270620   4.932639   2.475587
    28  H    7.248303   4.844927   5.362113   6.010850   2.685935
    29  C    6.715756   8.557784   4.983458   4.277663   7.992396
    30  C    7.848457   3.398730   7.290658   8.357162   3.281409
    31  H    8.810363   4.306813   8.329073   9.404010   4.180266
    32  H    8.185492   3.858876   7.361862   8.388461   3.054600
    33  C    7.392153   3.468314   7.121375   8.164625   4.072024
    34  H    7.250792   3.482777   7.279866   8.332604   4.631875
    35  H    6.505749   2.947347   6.178109   7.193687   3.673581
    36  C    8.594856   4.945402   8.317502   9.315752   5.283748
    37  H    8.924588   5.309213   8.407696   9.369857   5.193909
    38  H    9.487851   5.632579   9.257549  10.280370   5.924424
    39  H    8.522190   5.362618   8.439202   9.393925   6.008737
    40  H    7.820284   9.492773   6.061361   5.382922   8.737605
    41  N    6.202890   8.618909   4.763326   3.915720   8.380452
    42  H    6.623796   8.682712   5.005447   4.235151   8.227902
    43  C    6.851443   8.978956   5.420173   4.714009   8.639466
    44  H    6.691350   8.289290   5.093708   4.584162   7.801444
    45  H    7.952419   9.966011   6.479324   5.771084   9.460984
    46  H    6.703362   9.179442   5.566138   4.826803   9.084032
    47  C    6.728660   9.702486   5.627281   4.631383   9.649422
    48  H    6.477651   9.609724   5.473741   4.436623   9.646803
    49  H    6.568784   9.872229   5.756955   4.738002  10.032627
    50  H    7.838730  10.681529   6.671855   5.701067  10.473950
                   21         22         23         24         25
    21  C    0.000000
    22  H    1.102880   0.000000
    23  H    1.107461   1.769114   0.000000
    24  C    8.952940   9.000901   8.969750   0.000000
    25  H    9.132761   9.049088   9.165337   1.097954   0.000000
    26  H    9.570439   9.643673   9.674770   1.102930   1.778069
    27  C    4.313633   4.200977   4.279802   4.957559   4.964437
    28  H    4.954361   4.688097   4.800249   5.071467   4.888541
    29  C    1.528868   2.145804   2.184564  10.295943  10.524074
    30  C    9.578715   9.712309   9.431199   1.530397   2.170313
    31  H   10.609645  10.694457  10.464916   2.123604   2.422977
    32  H    9.163063   9.266979   8.916727   2.156131   2.483326
    33  C    9.771866  10.071269   9.592780   2.593393   3.526526
    34  H   10.322067  10.636102  10.235321   2.813496   3.802965
    35  H    8.848815   9.220989   8.662678   2.861257   3.861666
    36  C   10.716508  11.060496  10.406070   3.941527   4.714782
    37  H   10.377475  10.706988   9.969762   4.271092   4.918351
    38  H   11.673458  11.962637  11.377248   4.248690   4.883481
    39  H   11.014566  11.455522  10.692678   4.769823   5.644192
    40  H    2.156374   2.475597   2.465344  11.108079  11.283252
    41  N    2.495253   3.417495   2.866929  10.540031  10.910714
    42  H    2.147632   2.410427   3.074131  10.485249  10.677210
    43  C    3.068386   4.066862   2.884106  10.785325  11.202769
    44  H    2.740143   3.760507   2.243255   9.961292  10.369815
    45  H    3.561763   4.398745   3.262314  11.677599  12.044854
    46  H    4.020404   5.066475   3.853924  11.087304  11.597803
    47  C    3.770085   4.528267   4.252435  11.742554  12.131914
    48  H    3.971926   4.571593   4.689400  11.699608  12.055611
    49  H    4.571783   5.438770   4.951598  12.002855  12.480499
    50  H    4.239565   4.874975   4.616532  12.646015  12.992050
                   26         27         28         29         30
    26  H    0.000000
    27  C    5.759747   0.000000
    28  H    5.982109   1.091664   0.000000
    29  C   10.842082   5.800893   6.475616   0.000000
    30  C    2.179987   5.607323   5.620246  10.944782   0.000000
    31  H    2.489265   6.539864   6.451946  11.993443   1.104503
    32  H    3.080520   5.134003   4.997310  10.580298   1.103159
    33  C    2.854250   6.202374   6.407042  11.039868   1.531007
    34  H    2.627271   6.850428   7.145045  11.530323   2.164344
    35  H    3.218242   5.545715   5.882832  10.072897   2.169106
    36  C    4.257433   7.234857   7.332418  11.986987   2.546796
    37  H    4.823481   6.917065   6.911496  11.683299   2.818281
    38  H    4.457156   8.016447   8.029423  12.974656   2.822669
    39  H    4.960802   7.832236   8.034669  12.203043   3.507655
    40  H   11.714168   6.424963   6.964901   1.112639  11.709830
    41  N   11.026372   6.407759   7.197154   1.460639  11.098875
    42  H   10.956917   6.111028   6.818494   1.102030  11.267617
    43  C   11.349077   6.680950   7.390481   2.433255  11.151454
    44  H   10.585837   5.854420   6.516901   2.699146  10.251513
    45  H   12.289996   7.374463   7.979955   2.765793  12.015651
    46  H   11.595073   7.323023   8.093607   3.381538  11.391915
    47  C   12.152506   7.738077   8.552972   2.415511  12.359746
    48  H   12.043597   7.796475   8.642667   2.651386  12.439691
    49  H   12.365605   8.283768   9.152087   3.370293  12.557662
    50  H   13.102855   8.430048   9.162884   2.759007  13.241627
                   31         32         33         34         35
    31  H    0.000000
    32  H    1.764945   0.000000
    33  C    2.165791   2.169635   0.000000
    34  H    2.525360   3.079651   1.104540   0.000000
    35  H    3.080737   2.522992   1.104361   1.765924   0.000000
    36  C    2.771784   2.788529   1.528536   2.165920   2.158469
    37  H    3.133228   2.607953   2.186898   3.094030   2.530039
    38  H    2.594081   3.161049   2.187565   2.535946   3.088967
    39  H    3.787946   3.799706   2.186142   2.511438   2.498724
    40  H   12.746683  11.268275  11.851334  12.402074  10.895861
    41  N   12.182046  10.795480  10.991442  11.432412   9.961043
    42  H   12.296536  10.975943  11.413226  11.829453  10.473407
    43  C   12.243646  10.762565  10.954532  11.481025   9.900960
    44  H   11.336848   9.808128  10.080398  10.669295   9.041280
    45  H   13.097621  11.561009  11.865697  12.441447  10.825289
    46  H   12.493818  11.059948  11.048617  11.525248   9.966185
    47  C   13.442921  12.117909  12.204909  12.573010  11.165284
    48  H   13.504002  12.262741  12.341121  12.642935  11.330515
    49  H   13.651597  12.362843  12.269345  12.594050  11.203176
    50  H   14.322426  12.940293  13.126735  13.541799  12.089806
                   36         37         38         39         40
    36  C    0.000000
    37  H    1.103536   0.000000
    38  H    1.103560   1.778914   0.000000
    39  H    1.102421   1.779426   1.779742   0.000000
    40  H   12.738324  12.361506  13.721931  12.976344   0.000000
    41  N   11.881070  11.620291  12.916118  11.965299   2.145112
    42  H   12.460742  12.228840  13.422366  12.701281   1.778959
    43  C   11.678642  11.324350  12.740769  11.705814   2.685375
    44  H   10.755029  10.349614  11.810512  10.816119   3.001997
    45  H   12.539981  12.121282  13.596459  12.587144   2.548942
    46  H   11.723479  11.412857  12.807403  11.647284   3.716911
    47  C   13.126904  12.920791  14.166817  13.161477   2.824610
    48  H   13.363009  13.223145  14.375631  13.432061   3.196553
    49  H   13.145487  12.976603  14.205416  13.087975   3.822163
    50  H   14.011175  13.748057  15.053158  14.062806   2.718457
                   41         42         43         44         45
    41  N    0.000000
    42  H    2.078363   0.000000
    43  C    1.455703   3.355654   0.000000
    44  H    2.117106   3.728118   1.100488   0.000000
    45  H    2.147989   3.700630   1.113561   1.788531   0.000000
    46  H    2.103355   4.171142   1.101536   1.774902   1.788732
    47  C    1.454805   2.515557   2.403614   3.366103   2.741634
    48  H    2.108172   2.270149   3.362265   4.204380   3.760594
    49  H    2.105244   3.537652   2.638350   3.631139   3.076939
    50  H    2.150368   2.900093   2.738741   3.766332   2.608020
                   46         47         48         49         50
    46  H    0.000000
    47  C    2.628725   0.000000
    48  H    3.627391   1.101521   0.000000
    49  H    2.380508   1.101911   1.782263   0.000000
    50  H    3.056344   1.113602   1.788775   1.786863   0.000000
 Stoichiometry    C20H25N3O2
 Framework group  C1[X(C20H25N3O2)]
 Deg. of freedom   144
 Full point group                 C1      NOp   1
 Largest Abelian subgroup         C1      NOp   1
 Largest concise Abelian subgroup C1      NOp   1
                         Standard orientation:                         
 ---------------------------------------------------------------------
 Center     Atomic      Atomic             Coordinates (Angstroms)
 Number     Number       Type             X           Y           Z
 ---------------------------------------------------------------------
      1          8           0       -2.871445   -2.492506   -0.693149
      2          6           0        0.983867    0.476220   -0.524661
      3          6           0        1.890381   -0.647725   -0.436736
      4          8           0       -3.624545    1.961743   -0.771570
      5          7           0        3.233288   -0.427760   -0.350195
      6          1           0        3.553233    0.493635   -0.062077
      7          6           0       -0.917111   -1.117620   -0.600811
      8          7           0       -3.184303   -0.250199   -0.711745
      9          6           0       -0.420934    0.217245   -0.593157
     10          6           0        1.361836   -1.961874   -0.461797
     11          1           0        2.039955   -2.813719   -0.404408
     12          6           0       -1.333583    1.326019   -0.659906
     13          6           0       -0.849790    2.668300   -0.666464
     14          1           0       -1.552262    3.502418   -0.716347
     15          6           0        0.521815    2.891911   -0.618333
     16          1           0        0.901091    3.917327   -0.637723
     17          6           0       -2.709771    1.032072   -0.718035
     18          6           0        1.430068    1.830092   -0.551969
     19          1           0        2.496321    2.059775   -0.541557
     20          6           0       -2.334628   -1.371428   -0.666090
     21          6           0        4.227895   -1.458511   -0.130625
     22          1           0        4.180805   -2.218652   -0.928317
     23          1           0        4.048517   -1.994789    0.821583
     24          6           0       -4.648521   -0.477293   -0.764338
     25          1           0       -4.810806   -1.333663   -1.432018
     26          1           0       -5.091821    0.411877   -1.243207
     27          6           0       -0.002531   -2.193066   -0.544579
     28          1           0       -0.384905   -3.215512   -0.555731
     29          6           0        5.622924   -0.833253   -0.150218
     30          6           0       -5.295854   -0.737757    0.597732
     31          1           0       -6.357265   -0.968151    0.397103
     32          1           0       -4.859253   -1.653948    1.030091
     33          6           0       -5.204960    0.408308    1.608798
     34          1           0       -5.627337    1.325501    1.161178
     35          1           0       -4.145214    0.631673    1.824806
     36          6           0       -5.926908    0.096955    2.919627
     37          1           0       -5.505444   -0.798641    3.407549
     38          1           0       -7.001143   -0.092658    2.752563
     39          1           0       -5.843694    0.933806    3.632430
     40          1           0        6.368055   -1.629536    0.070413
     41          7           0        5.752432    0.309733    0.749936
     42          1           0        5.828784   -0.476602   -1.172417
     43          6           0        5.725636   -0.065062    2.156308
     44          1           0        4.793676   -0.593811    2.407203
     45          1           0        6.577192   -0.722678    2.443381
     46          1           0        5.772386    0.837627    2.785871
     47          6           0        6.923144    1.115386    0.438787
     48          1           0        6.890267    1.449741   -0.610248
     49          1           0        6.947789    2.010902    1.080388
     50          1           0        7.881207    0.568267    0.590067
 ---------------------------------------------------------------------
 Rotational constants (GHZ):           0.4719088           0.0948818           0.0888683
 Standard basis: def2SVP (5D, 7F)
 There are   500 symmetry adapted cartesian basis functions of A   symmetry.
 There are   475 symmetry adapted basis functions of A   symmetry.
   475 basis functions,   800 primitive gaussians,   500 cartesian basis functions
    91 alpha electrons       91 beta electrons
       nuclear repulsion energy      2144.2034611611 Hartrees.
 NAtoms=   50 NActive=   50 NUniq=   50 SFac= 1.00D+00 NAtFMM=   60 NAOKFM=F Big=F
 Integral buffers will be    131072 words long.
 Regular integral format.
 Two-electron integral symmetry is turned on.
 ------------------------------------------------------------------------------
 Polarizable Continuum Model (PCM)
 =================================
 Model                : PCM.
 Atomic radii         : SMD-Coulomb.
 Polarization charges : Total charges.
 Charge compensation  : None.
 Solution method      : On-the-fly selection.
 Cavity type          : VdW (van der Waals Surface) (Alpha=1.000).
 Cavity algorithm     : GePol (No added spheres)
                        Default sphere list used, NSphG=   50.
                        Lebedev-Laikov grids with approx.  5.0 points / Ang**2.
                        Smoothing algorithm: York/Karplus (Gamma=1.0000).
                        Polarization charges: spherical gaussians, with
                                              point-specific exponents (IZeta= 3).
                        Self-potential: point-specific (ISelfS= 7).
                        Self-field    : sphere-specific E.n sum rule (ISelfD= 2).
 1st derivatives      : Analytical E(r).r(x)/FMM algorithm (CHGder, D1EAlg=3).
                        Cavity 1st derivative terms included.
 Solvent              : Ethanol, Eps=  24.852000 Eps(inf)=   1.852593
 ------------------------------------------------------------------------------
 ------------------------------------------------------------------------------
 Atomic radii for non-electrostatic terms: SMD-CDS.
 ------------------------------------------------------------------------------
 Nuclear repulsion after PCM non-electrostatic terms =     2144.2003138497 Hartrees.
 One-electron integrals computed using PRISM.
   1 Symmetry operations used in ECPInt.
 ECPInt:  NShTT=   25425 NPrTT=   90925 LenC2=   20700 LenP2D=   49966.
 LDataN:  DoStor=T MaxTD1= 4 Len=   56
 NBasis=   475 RedAO= T EigKep=  2.19D-04  NBF=   475
 NBsUse=   475 1.00D-06 EigRej= -1.00D+00 NBFU=   475
 ExpMin= 1.22D-01 ExpMax= 2.27D+03 ExpMxC= 3.41D+02 IAcc=3 IRadAn=         5 AccDes= 0.00D+00
 Harris functional with IExCor=  402 and IRadAn=       5 diagonalized for initial guess.
 HarFok:  IExCor=  402 AccDes= 0.00D+00 IRadAn=         5 IDoV= 1 UseB2=F ITyADJ=14
 ICtDFT=  3500011 ScaDFX=  1.000000  1.000000  1.000000  1.000000
 FoFCou: FMM=F IPFlag=           0 FMFlag=      100000 FMFlg1=           0
         NFxFlg=           0 DoJE=T BraDBF=F KetDBF=T FulRan=T
         wScrn=  0.000000 ICntrl=       500 IOpCl=  0 I1Cent=   200000004 NGrid=           0
         NMat0=    1 NMatS0=      1 NMatT0=    0 NMatD0=    1 NMtDS0=    0 NMtDT0=    0
 Petite list used in FoFCou.
 Requested convergence on RMS density matrix=1.00D-08 within 128 cycles.
 Requested convergence on MAX density matrix=1.00D-06.
 Requested convergence on             energy=1.00D-06.
 No special actions if energy rises.
 Inv3:  Mode=1 IEnd=    37255728.
 Iteration    1 A*A^-1 deviation from unit magnitude is 6.00D-15 for   3511.
 Iteration    1 A*A^-1 deviation from orthogonality  is 3.09D-15 for   1801   1705.
 Iteration    1 A^-1*A deviation from unit magnitude is 6.22D-15 for   3511.
 Iteration    1 A^-1*A deviation from orthogonality  is 5.42D-14 for   2692   2649.
 Error on total polarization charges =  0.06543
 SCF Done:  E(RB3LYP) =  -1091.17925473     A.U. after   13 cycles
            NFock= 13  Conv=0.89D-08     -V/T= 2.0113
 SMD-CDS (non-electrostatic) energy       (kcal/mol) =      -1.97
 (included in total energy above)
 DoSCS=F DFT=T ScalE2(SS,OS)=  1.000000  1.000000
 ExpMin= 1.22D-01 ExpMax= 2.27D+03 ExpMxC= 3.41D+02 IAcc=3 IRadAn=         5 AccDes= 0.00D+00
 HarFok:  IExCor=  205 AccDes= 0.00D+00 IRadAn=         5 IDoV=-2 UseB2=F ITyADJ=14
 ICtDFT= 12500011 ScaDFX=  1.000000  1.000000  1.000000  1.000000
 GSVD:  LWork=        -825 too small for GESVD, short by        3500 words or        3500 for optimal perf.
 Range of M.O.s used for correlation:    26   475
 NBasis=   475 NAE=    91 NBE=    91 NFC=    25 NFV=     0
 NROrb=    450 NOA=    66 NOB=    66 NVA=   384 NVB=   384

 **** Warning!!: The largest alpha MO coefficient is  0.14989319D+02

 NEqPCM:  Using equilibrium solvation (IEInf=0, Eps=  24.8520, EpsInf=   1.8526)
 Orbital symmetries:
       Occupied  (A) (A) (A) (A) (A) (A) (A) (A) (A) (A) (A) (A)
                 (A) (A) (A) (A) (A) (A) (A) (A) (A) (A) (A) (A)
                 (A) (A) (A) (A) (A) (A) (A) (A) (A) (A) (A) (A)
                 (A) (A) (A) (A) (A) (A) (A) (A) (A) (A) (A) (A)
                 (A) (A) (A) (A) (A) (A) (A) (A) (A) (A) (A) (A)
                 (A) (A) (A) (A) (A) (A) (A) (A) (A) (A) (A) (A)
                 (A) (A) (A) (A) (A) (A) (A) (A) (A) (A) (A) (A)
                 (A) (A) (A) (A) (A) (A) (A)
       Virtual   (A) (A) (A) (A) (A) (A) (A) (A) (A) (A) (A) (A)
                 (A) (A) (A) (A) (A) (A) (A) (A) (A) (A) (A) (A)
                 (A) (A) (A) (A) (A) (A) (A) (A) (A) (A) (A) (A)
                 (A) (A) (A) (A) (A) (A) (A) (A) (A) (A) (A) (A)
                 (A) (A) (A) (A) (A) (A) (A) (A) (A) (A) (A) (A)
                 (A) (A) (A) (A) (A) (A) (A) (A) (A) (A) (A) (A)
                 (A) (A) (A) (A) (A) (A) (A) (A) (A) (A) (A) (A)
                 (A) (A) (A) (A) (A) (A) (A) (A) (A) (A) (A) (A)
                 (A) (A) (A) (A) (A) (A) (A) (A) (A) (A) (A) (A)
                 (A) (A) (A) (A) (A) (A) (A) (A) (A) (A) (A) (A)
                 (A) (A) (A) (A) (A) (A) (A) (A) (A) (A) (A) (A)
                 (A) (A) (A) (A) (A) (A) (A) (A) (A) (A) (A) (A)
                 (A) (A) (A) (A) (A) (A) (A) (A) (A) (A) (A) (A)
                 (A) (A) (A) (A) (A) (A) (A) (A) (A) (A) (A) (A)
                 (A) (A) (A) (A) (A) (A) (A) (A) (A) (A) (A) (A)
                 (A) (A) (A) (A) (A) (A) (A) (A) (A) (A) (A) (A)
                 (A) (A) (A) (A) (A) (A) (A) (A) (A) (A) (A) (A)
                 (A) (A) (A) (A) (A) (A) (A) (A) (A) (A) (A) (A)
                 (A) (A) (A) (A) (A) (A) (A) (A) (A) (A) (A) (A)
                 (A) (A) (A) (A) (A) (A) (A) (A) (A) (A) (A) (A)
                 (A) (A) (A) (A) (A) (A) (A) (A) (A) (A) (A) (A)
                 (A) (A) (A) (A) (A) (A) (A) (A) (A) (A) (A) (A)
                 (A) (A) (A) (A) (A) (A) (A) (A) (A) (A) (A) (A)
                 (A) (A) (A) (A) (A) (A) (A) (A) (A) (A) (A) (A)
                 (A) (A) (A) (A) (A) (A) (A) (A) (A) (A) (A) (A)
                 (A) (A) (A) (A) (A) (A) (A) (A) (A) (A) (A) (A)
                 (A) (A) (A) (A) (A) (A) (A) (A) (A) (A) (A) (A)
                 (A) (A) (A) (A) (A) (A) (A) (A) (A) (A) (A) (A)
                 (A) (A) (A) (A) (A) (A) (A) (A) (A) (A) (A) (A)
                 (A) (A) (A) (A) (A) (A) (A) (A) (A) (A) (A) (A)
                 (A) (A) (A) (A) (A) (A) (A) (A) (A) (A) (A) (A)
                 (A) (A) (A) (A) (A) (A) (A) (A) (A) (A) (A) (A)
    12 initial guesses have been made.
 Convergence on wavefunction:    0.000001000000000
 Iteration     1 Dimension    12 NMult     0 NNew     12
 CISAX will form    12 AO SS matrices at one time.
 Iteration     2 Dimension    18 NMult    12 NNew      6
 Iteration     3 Dimension    24 NMult    18 NNew      6
 Iteration     4 Dimension    30 NMult    24 NNew      6
 Iteration     5 Dimension    36 NMult    30 NNew      6
 Iteration     6 Dimension    42 NMult    36 NNew      6
 Iteration     7 Dimension    48 NMult    42 NNew      6
 Iteration     8 Dimension    54 NMult    48 NNew      6
 Iteration     9 Dimension    60 NMult    54 NNew      6
 Iteration    10 Dimension    66 NMult    60 NNew      6
 Iteration    11 Dimension    70 NMult    66 NNew      4
 ***********************************************************************
 Excited states from <AA,BB:AA,BB> singles matrix:
 ***********************************************************************
 
 Ground to excited state transition densities written to RWF  633
 Ground to excited state transition electric dipole moments (Au):
       state          X           Y           Z        Dip. S.      Osc.
         1         2.6324     -0.3175      0.1811      7.0632      0.4495
         2        -0.2564      0.0416      0.0459      0.0696      0.0052
         3        -0.0266     -0.0521      0.0241      0.0040      0.0003
 Ground to excited state transition velocity dipole moments (Au):
       state          X           Y           Z        Dip. S.      Osc.
         1        -0.2548      0.0400     -0.0186      0.0669      0.4671
         2         0.0318     -0.0038     -0.0066      0.0011      0.0064
         3         0.0031      0.0056     -0.0012      0.0000      0.0002
 Ground to excited state transition magnetic dipole moments (Au):
       state          X           Y           Z
         1         0.0587      0.3253     -0.1168
         2        -0.0254      0.0003     -0.0136
         3        -0.2312      0.4426     -0.0794
 Ground to excited state transition velocity quadrupole moments (Au):
       state          XX          YY          ZZ          XY          XZ          YZ
         1        -0.2906      0.1486      0.0112      0.1104      0.1623     -0.0291
         2        -0.5059      0.0167     -0.0155      0.0085     -0.1423     -0.0000
         3        -0.0251      0.0059      0.0062     -0.0237     -0.0204     -0.0133
 <0|del|b> * <b|rxdel|0> + <0|del|b> * <b|delr+rdel|0>
 Rotatory Strengths (R) in cgs (10**-40 erg-esu-cm/Gauss)
       state          XX          YY          ZZ    R(velocity)    E-M Angle
         1        24.6097    -12.3300    -10.5953      0.5614       89.86
         2        -1.6060     -2.0900     -0.8441     -1.5134      139.72
         3         7.6940     -1.9865      4.7634      3.4903       55.95
 1/2[<0|r|b>*<b|rxdel|0> + (<0|rxdel|b>*<b|r|0>)*]
 Rotatory Strengths (R) in cgs (10**-40 erg-esu-cm/Gauss)
       state          XX          YY          ZZ     R(length)
         1      -109.2975     73.0326     14.9558     -7.1030
         2        -4.6119     -0.0081      0.4411     -1.3930
         3        -4.3497     16.3215      1.3528      4.4415
  1/2[<0|del|b>*<b|r|0> + (<0|r|b>*<b|del|0>)*] (Au)
       state          X           Y           Z        Dip. S.   Osc.(frdel)
         1        -0.6708     -0.0127     -0.0034      0.6869      0.4579
         2        -0.0082     -0.0002     -0.0003      0.0086      0.0057
         3        -0.0001     -0.0003     -0.0000      0.0004      0.0003

 Excitation energies and oscillator strengths:
 
 Excited State   1:      Singlet-A      2.5975 eV  477.31 nm  f=0.4495  <S**2>=0.000
      91 -> 92         0.70368
 
 Excited State   2:      Singlet-A      3.0500 eV  406.50 nm  f=0.0052  <S**2>=0.000
      90 -> 92         0.70582
 This state for optimization and/or second-order correction.
 Total Energy, E(TD-HF/TD-DFT) =  -1091.06716880    
 Copying the excited state density for this state as the 1-particle RhoCI density.
 
 Excited State   3:      Singlet-A      3.4056 eV  364.06 nm  f=0.0003  <S**2>=0.000
      89 -> 92         0.69052
 SavETr:  write IOETrn=   770 NScale= 10 NData=  16 NLR=1 NState=    3 LETran=      64.
          IDoAtm=11111111111111111111111111111111111111111111111111
 NEqPCM:  Using equilibrium solvation (IEInf=0, Eps=  24.8520, EpsInf=   1.8526)
          Differentiating once with respect to electric field.
                with respect to dipole field.
          Differentiating once with respect to nuclear coordinates.
          There are     1 degrees of freedom in the 1st order CPHF.  IDoFFX=0 NUNeed=     1.
 LinEq1:  Iter=  0 NonCon=     1 RMS=7.39D-03 Max=3.02D-01 NDo=     1
 AX will form     1 AO Fock derivatives at one time.
 LinEq1:  Iter=  1 NonCon=     1 RMS=2.31D-03 Max=1.11D-01 NDo=     1
 LinEq1:  Iter=  2 NonCon=     1 RMS=1.11D-03 Max=8.96D-02 NDo=     1
 LinEq1:  Iter=  3 NonCon=     1 RMS=5.03D-04 Max=2.39D-02 NDo=     1
 LinEq1:  Iter=  4 NonCon=     1 RMS=3.72D-04 Max=1.80D-02 NDo=     1
 LinEq1:  Iter=  5 NonCon=     1 RMS=2.73D-04 Max=1.23D-02 NDo=     1
 LinEq1:  Iter=  6 NonCon=     1 RMS=1.46D-04 Max=6.92D-03 NDo=     1
 LinEq1:  Iter=  7 NonCon=     1 RMS=1.16D-04 Max=9.79D-03 NDo=     1
 LinEq1:  Iter=  8 NonCon=     1 RMS=5.21D-05 Max=2.94D-03 NDo=     1
 LinEq1:  Iter=  9 NonCon=     1 RMS=3.51D-05 Max=1.52D-03 NDo=     1
 LinEq1:  Iter= 10 NonCon=     1 RMS=1.83D-05 Max=7.45D-04 NDo=     1
 LinEq1:  Iter= 11 NonCon=     1 RMS=1.16D-05 Max=5.22D-04 NDo=     1
 LinEq1:  Iter= 12 NonCon=     1 RMS=5.89D-06 Max=2.87D-04 NDo=     1
 LinEq1:  Iter= 13 NonCon=     1 RMS=3.93D-06 Max=1.62D-04 NDo=     1
 LinEq1:  Iter= 14 NonCon=     1 RMS=1.77D-06 Max=1.11D-04 NDo=     1
 LinEq1:  Iter= 15 NonCon=     1 RMS=1.01D-06 Max=4.65D-05 NDo=     1
 LinEq1:  Iter= 16 NonCon=     1 RMS=4.66D-07 Max=2.02D-05 NDo=     1
 LinEq1:  Iter= 17 NonCon=     1 RMS=2.47D-07 Max=8.53D-06 NDo=     1
 LinEq1:  Iter= 18 NonCon=     1 RMS=7.80D-08 Max=2.49D-06 NDo=     1
 LinEq1:  Iter= 19 NonCon=     1 RMS=5.57D-08 Max=3.25D-06 NDo=     1
 LinEq1:  Iter= 20 NonCon=     1 RMS=2.10D-08 Max=6.90D-07 NDo=     1
 LinEq1:  Iter= 21 NonCon=     1 RMS=1.38D-08 Max=8.06D-07 NDo=     1
 LinEq1:  Iter= 22 NonCon=     1 RMS=4.58D-09 Max=2.12D-07 NDo=     1
 LinEq1:  Iter= 23 NonCon=     1 RMS=2.85D-09 Max=1.45D-07 NDo=     1
 LinEq1:  Iter= 24 NonCon=     1 RMS=1.09D-09 Max=5.38D-08 NDo=     1
 LinEq1:  Iter= 25 NonCon=     1 RMS=5.96D-10 Max=2.26D-08 NDo=     1
 LinEq1:  Iter= 26 NonCon=     1 RMS=2.81D-10 Max=1.21D-08 NDo=     1
 LinEq1:  Iter= 27 NonCon=     1 RMS=1.29D-10 Max=5.96D-09 NDo=     1
 LinEq1:  Iter= 28 NonCon=     1 RMS=6.22D-11 Max=2.20D-09 NDo=     1
 LinEq1:  Iter= 29 NonCon=     1 RMS=1.79D-11 Max=1.08D-09 NDo=     1
 LinEq1:  Iter= 30 NonCon=     0 RMS=1.07D-11 Max=3.76D-10 NDo=     1
 Linear equations converged to 1.000D-10 1.000D-09 after    30 iterations.
 End of Minotr F.D. properties file   721 does not exist.
 End of Minotr F.D. properties file   722 does not exist.
 End of Minotr F.D. properties file   788 does not exist.

 **********************************************************************

            Population analysis using the SCF Density.

 **********************************************************************

 Orbital symmetries:
       Occupied  (A) (A) (A) (A) (A) (A) (A) (A) (A) (A) (A) (A)
                 (A) (A) (A) (A) (A) (A) (A) (A) (A) (A) (A) (A)
                 (A) (A) (A) (A) (A) (A) (A) (A) (A) (A) (A) (A)
                 (A) (A) (A) (A) (A) (A) (A) (A) (A) (A) (A) (A)
                 (A) (A) (A) (A) (A) (A) (A) (A) (A) (A) (A) (A)
                 (A) (A) (A) (A) (A) (A) (A) (A) (A) (A) (A) (A)
                 (A) (A) (A) (A) (A) (A) (A) (A) (A) (A) (A) (A)
                 (A) (A) (A) (A) (A) (A) (A)
       Virtual   (A) (A) (A) (A) (A) (A) (A) (A) (A) (A) (A) (A)
                 (A) (A) (A) (A) (A) (A) (A) (A) (A) (A) (A) (A)
                 (A) (A) (A) (A) (A) (A) (A) (A) (A) (A) (A) (A)
                 (A) (A) (A) (A) (A) (A) (A) (A) (A) (A) (A) (A)
                 (A) (A) (A) (A) (A) (A) (A) (A) (A) (A) (A) (A)
                 (A) (A) (A) (A) (A) (A) (A) (A) (A) (A) (A) (A)
                 (A) (A) (A) (A) (A) (A) (A) (A) (A) (A) (A) (A)
                 (A) (A) (A) (A) (A) (A) (A) (A) (A) (A) (A) (A)
                 (A) (A) (A) (A) (A) (A) (A) (A) (A) (A) (A) (A)
                 (A) (A) (A) (A) (A) (A) (A) (A) (A) (A) (A) (A)
                 (A) (A) (A) (A) (A) (A) (A) (A) (A) (A) (A) (A)
                 (A) (A) (A) (A) (A) (A) (A) (A) (A) (A) (A) (A)
                 (A) (A) (A) (A) (A) (A) (A) (A) (A) (A) (A) (A)
                 (A) (A) (A) (A) (A) (A) (A) (A) (A) (A) (A) (A)
                 (A) (A) (A) (A) (A) (A) (A) (A) (A) (A) (A) (A)
                 (A) (A) (A) (A) (A) (A) (A) (A) (A) (A) (A) (A)
                 (A) (A) (A) (A) (A) (A) (A) (A) (A) (A) (A) (A)
                 (A) (A) (A) (A) (A) (A) (A) (A) (A) (A) (A) (A)
                 (A) (A) (A) (A) (A) (A) (A) (A) (A) (A) (A) (A)
                 (A) (A) (A) (A) (A) (A) (A) (A) (A) (A) (A) (A)
                 (A) (A) (A) (A) (A) (A) (A) (A) (A) (A) (A) (A)
                 (A) (A) (A) (A) (A) (A) (A) (A) (A) (A) (A) (A)
                 (A) (A) (A) (A) (A) (A) (A) (A) (A) (A) (A) (A)
                 (A) (A) (A) (A) (A) (A) (A) (A) (A) (A) (A) (A)
                 (A) (A) (A) (A) (A) (A) (A) (A) (A) (A) (A) (A)
                 (A) (A) (A) (A) (A) (A) (A) (A) (A) (A) (A) (A)
                 (A) (A) (A) (A) (A) (A) (A) (A) (A) (A) (A) (A)
                 (A) (A) (A) (A) (A) (A) (A) (A) (A) (A) (A) (A)
                 (A) (A) (A) (A) (A) (A) (A) (A) (A) (A) (A) (A)
                 (A) (A) (A) (A) (A) (A) (A) (A) (A) (A) (A) (A)
                 (A) (A) (A) (A) (A) (A) (A) (A) (A) (A) (A) (A)
                 (A) (A) (A) (A) (A) (A) (A) (A) (A) (A) (A) (A)
 The electronic state is 1-A.
 Alpha  occ. eigenvalues --  -19.10904 -19.09943 -14.37597 -14.35495 -14.32094
 Alpha  occ. eigenvalues --  -10.29584 -10.29420 -10.25542 -10.21859 -10.21854
 Alpha  occ. eigenvalues --  -10.21477 -10.21357 -10.21341 -10.21217 -10.20959
 Alpha  occ. eigenvalues --  -10.20919 -10.20910 -10.20073 -10.19995 -10.19934
 Alpha  occ. eigenvalues --  -10.19476 -10.19111 -10.17622 -10.17260 -10.16923
 Alpha  occ. eigenvalues --   -1.03687  -0.99869  -0.94875  -0.91498  -0.91141
 Alpha  occ. eigenvalues --   -0.87574  -0.82579  -0.80041  -0.77502  -0.75474
 Alpha  occ. eigenvalues --   -0.74761  -0.72659  -0.71363  -0.69297  -0.66801
 Alpha  occ. eigenvalues --   -0.65711  -0.64564  -0.62568  -0.61700  -0.60788
 Alpha  occ. eigenvalues --   -0.57307  -0.56955  -0.55987  -0.53657  -0.51868
 Alpha  occ. eigenvalues --   -0.51138  -0.49564  -0.48376  -0.48201  -0.46923
 Alpha  occ. eigenvalues --   -0.46658  -0.46070  -0.45062  -0.44691  -0.44384
 Alpha  occ. eigenvalues --   -0.43771  -0.43343  -0.42379  -0.42096  -0.41470
 Alpha  occ. eigenvalues --   -0.40538  -0.40322  -0.39882  -0.39368  -0.38952
 Alpha  occ. eigenvalues --   -0.38709  -0.38239  -0.37547  -0.36566  -0.36234
 Alpha  occ. eigenvalues --   -0.35759  -0.35397  -0.35093  -0.34441  -0.34023
 Alpha  occ. eigenvalues --   -0.33598  -0.32214  -0.31916  -0.31261  -0.27763
 Alpha  occ. eigenvalues --   -0.27077  -0.26286  -0.26163  -0.25376  -0.22183
 Alpha  occ. eigenvalues --   -0.20658
 Alpha virt. eigenvalues --   -0.09179  -0.02811  -0.02618   0.01163   0.05684
 Alpha virt. eigenvalues --    0.07002   0.07373   0.08313   0.08795   0.09431
 Alpha virt. eigenvalues --    0.09822   0.09969   0.10118   0.10656   0.11012
 Alpha virt. eigenvalues --    0.11258   0.12033   0.12604   0.13093   0.14065
 Alpha virt. eigenvalues --    0.14220   0.14408   0.14686   0.15597   0.15757
 Alpha virt. eigenvalues --    0.16179   0.16530   0.16657   0.17096   0.18193
 Alpha virt. eigenvalues --    0.18360   0.19180   0.19771   0.20413   0.21077
 Alpha virt. eigenvalues --    0.21872   0.22327   0.23233   0.23562   0.24361
 Alpha virt. eigenvalues --    0.24625   0.24939   0.25257   0.25912   0.26111
 Alpha virt. eigenvalues --    0.26856   0.27467   0.27951   0.28259   0.29783
 Alpha virt. eigenvalues --    0.30166   0.30950   0.33694   0.34967   0.35294
 Alpha virt. eigenvalues --    0.35933   0.36793   0.39513   0.40982   0.41197
 Alpha virt. eigenvalues --    0.41412   0.41879   0.42536   0.43235   0.43775
 Alpha virt. eigenvalues --    0.43898   0.44329   0.44964   0.45205   0.45783
 Alpha virt. eigenvalues --    0.45917   0.46243   0.46707   0.47160   0.47668
 Alpha virt. eigenvalues --    0.48489   0.49272   0.50542   0.51232   0.51753
 Alpha virt. eigenvalues --    0.53289   0.53587   0.54175   0.54277   0.55524
 Alpha virt. eigenvalues --    0.56549   0.58038   0.59435   0.59555   0.60082
 Alpha virt. eigenvalues --    0.60244   0.60800   0.61528   0.61869   0.62345
 Alpha virt. eigenvalues --    0.62944   0.63239   0.63845   0.64044   0.64308
 Alpha virt. eigenvalues --    0.64597   0.64977   0.65060   0.65475   0.65696
 Alpha virt. eigenvalues --    0.66178   0.66488   0.66894   0.67210   0.67540
 Alpha virt. eigenvalues --    0.68102   0.68139   0.68371   0.68622   0.68997
 Alpha virt. eigenvalues --    0.69212   0.69692   0.70012   0.70419   0.70529
 Alpha virt. eigenvalues --    0.71046   0.71628   0.71779   0.72268   0.72749
 Alpha virt. eigenvalues --    0.73207   0.73311   0.73904   0.74219   0.74956
 Alpha virt. eigenvalues --    0.75255   0.76595   0.77528   0.77938   0.78654
 Alpha virt. eigenvalues --    0.79302   0.81201   0.81566   0.82526   0.82965
 Alpha virt. eigenvalues --    0.84345   0.84944   0.85294   0.88536   0.89291
 Alpha virt. eigenvalues --    0.89836   0.90727   0.91239   0.92184   0.94868
 Alpha virt. eigenvalues --    0.97237   0.98457   1.00194   1.01713   1.02446
 Alpha virt. eigenvalues --    1.03809   1.04632   1.06910   1.08285   1.08837
 Alpha virt. eigenvalues --    1.09578   1.09948   1.11190   1.11926   1.13833
 Alpha virt. eigenvalues --    1.15405   1.15691   1.17724   1.18291   1.18995
 Alpha virt. eigenvalues --    1.19819   1.20432   1.20797   1.21624   1.22060
 Alpha virt. eigenvalues --    1.22812   1.23745   1.24129   1.24540   1.24698
 Alpha virt. eigenvalues --    1.26898   1.27802   1.28550   1.30583   1.31769
 Alpha virt. eigenvalues --    1.32129   1.33692   1.34504   1.35432   1.36371
 Alpha virt. eigenvalues --    1.38120   1.39099   1.40318   1.41500   1.42815
 Alpha virt. eigenvalues --    1.44747   1.46036   1.47682   1.48090   1.49705
 Alpha virt. eigenvalues --    1.50660   1.51662   1.52174   1.53624   1.53998
 Alpha virt. eigenvalues --    1.54287   1.54378   1.54836   1.56973   1.59013
 Alpha virt. eigenvalues --    1.62105   1.65190   1.65912   1.66481   1.67734
 Alpha virt. eigenvalues --    1.69568   1.70498   1.70695   1.71461   1.71861
 Alpha virt. eigenvalues --    1.72549   1.73111   1.73970   1.74528   1.75125
 Alpha virt. eigenvalues --    1.75484   1.75751   1.76997   1.77048   1.77593
 Alpha virt. eigenvalues --    1.77834   1.78085   1.78528   1.79037   1.79989
 Alpha virt. eigenvalues --    1.80285   1.80577   1.81134   1.81353   1.82237
 Alpha virt. eigenvalues --    1.82277   1.82650   1.83719   1.83791   1.84534
 Alpha virt. eigenvalues --    1.84848   1.85502   1.86056   1.86459   1.86607
 Alpha virt. eigenvalues --    1.87598   1.88183   1.88594   1.89539   1.90043
 Alpha virt. eigenvalues --    1.91453   1.92257   1.92722   1.93539   1.93686
 Alpha virt. eigenvalues --    1.94837   1.95708   1.96177   1.96540   1.97462
 Alpha virt. eigenvalues --    1.98084   1.98296   2.01103   2.01611   2.02431
 Alpha virt. eigenvalues --    2.03722   2.04920   2.05446   2.05732   2.06574
[...]
 0063,0.00000257,0.00000005,-0.00000032,-0.00000131,0.,-0.00000174,-0.0
 0000011,0.00000067,-0.00000014,-0.00000011,-0.00000046,0.00000031,-0.0
 0000039,-0.00000023,0.00000049,-0.00000034,0.,0.00000058,-0.00104994,-
 0.00144602,-0.00105237,-0.04312289,-0.21585222,0.04069960,0.00029782,0
 .00059722,0.00151191,-0.00103405,-0.00329274,0.01149333,-0.00082427,0.
 00121817,-0.00124029,-0.00032113,-0.00065630,-0.00086260,0.00008522,-0
 .00058935,0.00004438,-0.00206705,0.51527367,0.00015951,0.00017855,0.00
 001905,-0.00000831,0.00002817,0.00006111,-0.00046736,-0.00025881,-0.00
 001939,0.00012447,-0.00011603,-0.00000086,0.00094584,0.00084421,0.0005
 0155,-0.00107387,-0.00015607,-0.00009097,0.00037339,-0.00008141,0.0000
 3637,0.00005750,-0.00009210,0.00000747,0.00006942,0.00004665,-0.000007
 95,0.00036086,0.00022208,-0.00012761,-0.00002164,0.00000713,0.00004704
 ,0.00012332,0.00008536,0.00000895,-0.00012057,-0.00011942,-0.00005325,
 -0.00000127,0.00000091,0.00003068,0.00014626,-0.00007599,-0.00006522,0
 .00000296,-0.00000670,0.00000858,-0.00018161,0.00009452,0.00002127,-0.
 00013052,0.00003186,0.00005752,0.00002825,0.00004985,0.00004705,-0.000
 44261,-0.00010160,-0.00003426,-0.00087993,-0.00348665,-0.00114638,-0.0
 0080253,0.00014588,0.00018592,0.00021142,0.00017757,0.00007976,-0.0000
 3901,-0.00000926,-0.00000178,0.00000399,0.00000402,-0.00000344,0.00000
 556,-0.00000273,-0.00000191,-0.00030064,0.00002308,-0.00011686,0.00000
 500,0.00000559,0.00002174,-0.00266107,-0.01533640,0.01178248,0.0000046
 7,-0.00000167,0.00000782,0.00000603,0.00000082,-0.00000481,-0.00000298
 ,-0.00000183,0.00000187,-0.00000130,0.00000333,-0.00000079,-0.00000016
 ,-0.00000138,0.00000019,0.00000202,0.00000130,0.00000186,-0.00000049,-
 0.00000144,-0.00000005,-0.00000040,-0.00000049,0.00000020,0.00000170,0
 .00000046,-0.00000039,0.00000003,0.00000009,-0.00000143,-0.00098781,-0
 .00275904,-0.00090187,-0.00026740,0.02677147,-0.11494604,-0.00040255,-
 0.00181934,0.00107543,0.00705069,0.02810454,-0.01217040,-0.00043635,0.
 00004743,-0.00442141,0.00026864,0.00212121,0.00008556,-0.00009782,0.00
 168178,-0.00042359,0.02798005,0.06647544,0.60918966,0.00009729,0.00014
 118,-0.00001051,-0.00005859,-0.00012954,0.00004721,-0.00014422,0.00001
 750,-0.00036135,0.00005659,-0.00007541,0.00001282,-0.00139343,-0.00195
 290,0.00015967,-0.00077876,0.00025521,0.00051046,0.00022574,-0.0000363
 7,0.00003769,0.00001307,-0.00008467,-0.00000446,0.00005925,0.00001889,
 -0.00002103,0.00003617,0.00003879,0.00017542,0.00000179,0.00001338,-0.
 00000787,-0.00001288,0.00002964,0.00000967,0.00000051,-0.00005270,0.00
 005926,0.00000226,0.00000055,-0.00004126,-0.00000570,0.00003885,0.0001
 3522,-0.00000895,-0.00001043,-0.00002360,-0.00002845,0.00010125,-0.000
 02012,0.00017966,-0.00000369,-0.00023998,-0.00013561,0.00002908,0.0000
 4275,-0.00025648,-0.00008633,0.00001669,-0.00030976,0.00013590,-0.0002
 7152,-0.00008484,-0.00000797,-0.00005257,0.00006273,0.00006654,0.00003
 141,-0.00002047,-0.00000637,-0.00000057,0.00000138,0.00000240,-0.00000
 189,0.00000317,-0.00000175,-0.00000079,-0.00013773,0.00005708,0.000034
 17,0.00000329,-0.00000110,-0.00004118,0.00146186,-0.00035479,0.0004926
 7,0.00000233,-0.00000120,0.00000353,0.00000277,0.00000022,-0.00000241,
 -0.00000185,-0.00000040,0.00000158,0.00000028,0.00000186,-0.00000041,-
 0.00000041,-0.00000060,0.00000004,0.00000055,0.00000024,0.00000106,-0.
 00000019,-0.00000098,0.00000019,-0.00000011,0.00000017,-0.00000007,0.0
 0000056,0.00000017,-0.00000027,0.00000018,-0.00000006,-0.00000073,-0.0
 0004952,-0.00028176,0.00009594,0.00822348,-0.00403123,0.00649140,-0.00
 000555,0.00019216,0.00004838,-0.00135692,-0.00016322,0.00081463,-0.000
 33214,-0.00017125,0.00034716,0.00018461,-0.00014346,-0.00005630,0.0000
 4123,-0.00033901,0.00046634,-0.20953217,0.07215985,-0.11889415,0.22272
 426,0.00007559,0.00021136,0.00000051,-0.00011189,-0.00020588,0.0002316
 8,-0.00064893,-0.00010595,0.00017616,0.00017601,-0.00016940,0.00000539
 ,-0.00088340,-0.00031479,-0.00001634,-0.00124419,-0.00062815,-0.000168
 27,0.00026877,-0.00023280,0.00007347,-0.00001754,0.00003377,-0.0000100
 9,0.00003665,-0.00001950,-0.00006920,0.00054879,0.00042320,-0.00012051
 ,-0.00000021,0.00001106,-0.00001536,0.00025757,0.00020847,0.00001105,-
 0.00024774,-0.00027696,-0.00001113,-0.00000441,0.00000176,0.00000867,0
 .00033051,-0.00012831,-0.00000885,-0.00000200,-0.00000512,0.00000077,-
 0.00032937,0.00007586,0.00000299,-0.00011920,0.00014235,-0.00009536,-0
 .00006841,0.00013765,0.00015581,-0.00016065,-0.00020817,-0.00000454,0.
 00205055,-0.00045516,-0.00016373,0.00004408,0.00012232,0.00010688,-0.0
 0042549,-0.00017439,0.00004177,-0.00003142,-0.00000289,0.00000305,0.00
 000336,0.00000548,-0.00000152,0.00000020,-0.00000306,-0.00000249,-0.00
 050806,0.00031542,-0.00004502,-0.00000325,-0.00000398,-0.00001335,-0.0
 0220291,-0.00100255,0.00055375,0.00000204,-0.00000031,0.00000428,0.000
 00292,0.00000057,-0.00000326,-0.00000135,0.00000043,0.00000050,0.00000
 182,0.00000224,-0.00000094,-0.00000187,-0.00000047,0.00000041,0.000000
 41,0.00000003,0.00000149,-0.00000008,-0.00000088,0.00000016,0.00000017
 ,0.00000045,-0.00000015,0.00000015,0.00000017,-0.00000045,0.00000052,-
 0.00000025,-0.00000099,0.00034304,0.00059493,-0.00005138,0.02208497,-0
 .01823539,0.02176551,0.00020775,-0.00038914,-0.00046038,-0.00041692,-0
 .00198962,-0.00014465,-0.00030541,0.00002316,0.00085693,-0.00006382,0.
 00002436,-0.00023970,-0.00003059,-0.00043316,-0.00008684,0.06949436,-0
 .07606212,0.04246117,-0.07469621,0.08926236,0.00008193,0.00010773,-0.0
 0000594,-0.00011870,-0.00007977,-0.00002345,0.00009939,0.00003197,-0.0
 0012613,0.00002658,-0.00004043,0.00000179,-0.00024935,-0.00012066,-0.0
 0000224,0.00109541,-0.00001366,-0.00015184,0.00019769,-0.00004572,0.00
 000887,0.00001064,-0.00009472,-0.00000152,0.00007755,0.00003362,0.0000
 1317,-0.00000902,0.00001527,0.00004179,0.00000805,0.00002149,0.0000044
 9,-0.00001987,0.00002262,-0.00000773,-0.00004934,-0.00003239,0.0000239
 2,-0.00000096,-0.00000115,-0.00001068,0.00006232,-0.00003075,0.0000212
 9,-0.00000186,-0.00000049,-0.00000476,0.00000019,0.00007287,-0.0000046
 7,0.00003993,0.00006024,-0.00007046,-0.00005146,0.00002363,0.00010749,
 -0.00024524,-0.00005269,0.00000328,0.00000926,0.00034379,-0.00065819,-
 0.00017630,-0.00013021,-0.00005666,0.00007543,0.00005927,0.00004432,-0
 .00001346,-0.00000589,0.00000177,-0.00000014,0.00000090,-0.00000197,0.
 00000246,-0.00000082,-0.00000042,-0.00012727,0.00004492,0.00000277,-0.
 00000256,0.00000014,-0.00000796,0.00061722,-0.00136960,0.00100562,0.00
 000111,-0.00000131,0.00000315,0.00000134,-0.00000022,-0.00000214,-0.00
 000098,0.00000008,0.00000123,0.00000227,0.00000174,0.00000042,-0.00000
 040,0.00000008,-0.00000027,-0.00000064,-0.00000016,0.00000066,-0.00000
 041,-0.00000108,-0.00000008,0.00000023,0.00000071,-0.00000016,-0.00000
 036,0.,-0.00000021,0.00000062,-0.00000036,-0.00000089,-0.00017583,-0.0
 0045137,-0.00009127,-0.00567388,0.01242552,-0.01165742,-0.00000684,-0.
 00033121,-0.00006093,-0.00026286,0.00259016,0.00025466,0.00040581,-0.0
 0002811,-0.00046568,0.00048094,-0.00007825,0.00069338,0.00001767,-0.00
 041416,0.00048406,-0.11934648,0.04230941,-0.11650126,0.12353950,-0.057
 66465,0.12629958,0.00002599,0.00004150,0.00000131,-0.00002669,-0.00004
 021,0.00001046,-0.00000058,-0.00003193,0.00001355,0.00001909,-0.000017
 67,0.00000248,-0.00006764,0.00014450,0.00007635,0.00000107,-0.00007175
 ,-0.00010207,0.00006587,-0.00003074,0.00001306,0.00000422,-0.00001884,
 -0.00000028,0.00002264,0.00000802,-0.00000267,0.00004678,0.00004503,-0
 .00000291,0.00000210,-0.00000637,0.00000932,0.00001123,0.00001405,0.00
 000134,-0.00002395,-0.00001670,-0.00000026,-0.00000027,-0.00000010,-0.
 00000130,0.00003230,-0.00001533,0.00000520,-0.00000134,0.00000185,-0.0
 0000258,-0.00002316,0.00001833,-0.00000095,-0.00000278,0.00003337,0.00
 000457,0.00000854,-0.00000399,-0.00001643,-0.00007037,-0.00002977,0.00
 000003,-0.00025104,0.00037429,0.00016859,0.00010191,0.00003504,-0.0000
 2649,0.00001055,0.00001096,-0.00000857,-0.00000671,-0.00000168,-0.0000
 0040,0.00000045,0.00000091,-0.00000036,0.00000066,-0.00000069,-0.00000
 041,-0.00006593,0.00002481,-0.00001740,-0.00000109,-0.00000069,-0.0000
 0527,0.00349234,-0.00156302,0.00087894,0.00000072,-0.00000014,0.000000
 52,0.00000123,0.00000029,-0.00000035,-0.00000076,-0.00000035,0.0000003
 0,-0.00000129,0.00000014,-0.00000048,-0.00000012,-0.00000029,0.0000000
 5,0.00000097,0.00000023,0.00000041,0.00000004,-0.00000018,0.00000012,-
 0.00000027,-0.00000023,-0.00000002,0.00000077,0.00000016,-0.00000004,-
 0.00000027,0.00000021,0.00000005,-0.00053867,-0.00048386,-0.00035884,-
 0.00432405,-0.00619827,-0.00583637,-0.00006228,0.00006671,-0.00000951,
 -0.00021144,0.00058331,-0.00026392,-0.00003674,0.00007171,-0.00000301,
 -0.00000343,0.00004216,-0.00016802,-0.00023189,-0.00016373,0.00025447,
 -0.05929937,-0.03415558,-0.04422567,-0.00219288,-0.01451060,-0.0152779
 8,0.05642093,-0.00001078,0.00001847,-0.00000269,-0.00008865,-0.0000870
 2,0.00005389,0.00011538,0.00005423,0.00014453,-0.00000112,-0.00000218,
 -0.00000291,-0.00026143,0.00022242,-0.00009313,-0.00009428,-0.00003576
 ,-0.00009135,0.00000824,-0.00006098,0.00001020,-0.00001999,0.00000008,
 -0.00000337,0.00002656,-0.00000311,-0.00001173,0.00006286,0.00004103,-
 0.00004650,0.00000149,0.00002687,-0.00000900,0.00000820,0.00003210,-0.
 00000199,-0.00004851,-0.00004024,0.00000460,-0.00000121,0.00000191,-0.
 00000208,0.00007790,-0.00002994,0.00001026,0.00000075,0.00000260,-0.00
 000169,-0.00001005,0.00000213,0.00000493,-0.00002209,0.00007806,-0.000
 02602,-0.00001001,0.00000162,0.00000250,0.00002187,-0.00002211,0.00000
 446,0.00094322,-0.00098579,-0.00067930,-0.00035752,-0.00000517,0.00008
 133,-0.00017085,-0.00006827,0.00004646,0.00000275,0.00000066,0.0000015
 1,-0.00000098,-0.00000004,0.00000007,-0.00000117,0.00000007,-0.0000002
 2,-0.00009572,0.00009417,-0.00000544,-0.00000629,-0.00000477,-0.000002
 03,-0.00109619,-0.00199848,0.00374216,-0.00000098,0.00000073,-0.000001
 08,-0.00000099,-0.00000013,0.00000059,0.00000035,0.00000026,-0.0000002
 6,0.00000004,-0.00000069,0.00000025,-0.00000010,0.00000029,-0.00000003
 ,-0.00000016,-0.00000011,-0.00000013,0.00000015,0.00000026,-0.00000017
 ,0.00000010,0.,0.00000003,-0.00000031,-0.00000006,0.00000003,0.0000000
 2,0.00000008,0.00000027,-0.00030493,-0.00063410,-0.00045102,-0.0078455
 9,-0.02496196,-0.02526005,0.00000869,0.00010413,0.00009359,-0.00040016
 ,0.00042451,-0.00147724,0.00012903,0.00018111,-0.00010927,0.00028091,-
 0.00027646,0.00043061,-0.00015329,-0.00020936,0.00015272,-0.03356592,-
 0.15004684,-0.12539026,0.00123518,0.00883239,0.00938903,0.04123520,0.1
 6860273,0.00000432,0.00000916,0.,-0.00000680,-0.00002215,0.00001054,0.
 00000117,-0.00004004,0.00002767,-0.00000046,0.00000036,-0.00000026,-0.
 00002323,0.00010274,-0.00002365,-0.00000978,-0.00004374,-0.00007770,0.
 00002119,-0.00001650,0.00000481,-0.00000023,-0.00000773,-0.00000037,0.
 00001121,-0.00000084,-0.00000131,0.00002878,0.00003255,-0.00000423,-0.
 00000140,-0.00000760,0.00000061,-0.00000161,0.00000457,-0.00000012,-0.
 00001041,-0.00000446,0.00000035,-0.00000042,0.00000010,-0.00000053,0.0
 0001584,-0.00001222,0.00000277,-0.00000011,0.00000155,-0.00000062,0.00
 000208,0.00000250,0.00000093,0.00000336,0.00002293,-0.00000116,0.00000
 625,-0.00000339,-0.00000388,-0.00001655,-0.00000629,0.,0.00007956,0.00
 029319,0.00039606,0.00017239,0.00000149,0.00001832,-0.00008352,-0.0000
 4899,-0.00002098,-0.00000027,-0.00000045,0.00000026,-0.00000014,0.0000
 0006,-0.00000011,0.00000005,-0.00000005,-0.00000012,-0.00003349,0.0000
 1088,-0.00000542,-0.00000089,-0.00000031,-0.00000163,0.00042731,0.0020
 5093,-0.00103842,0.00000006,0.00000008,-0.00000001,-0.00000006,-0.0000
 0002,-0.00000001,-0.00000003,0.00000002,0.00000006,-0.00000004,-0.0000
 0018,0.00000007,-0.00000008,0.00000013,-0.00000008,0.00000007,-0.00000
 003,0.00000006,0.00000005,-0.00000005,-0.00000022,0.00000003,0.,0.0000
 0004,-0.00000009,-0.00000001,0.,0.00000003,0.00000011,0.00000016,0.000
 04133,0.00033419,0.00035129,0.00440789,0.01273068,0.01194846,-0.000017
 27,-0.00005232,0.00025212,0.00056615,0.00189406,0.00050495,0.00011006,
 0.00010687,0.00011794,-0.00001749,0.00028060,0.00014498,0.00005494,0.0
 0014929,0.00011842,-0.04791936,-0.14001928,-0.22921278,0.00025027,-0.0
 0802790,-0.00822419,0.04784865,0.13885773,0.23491224,0.00006863,0.0001
 5778,-0.00000637,-0.00008556,-0.00018178,0.00012898,-0.00017098,-0.000
 17505,0.00012656,0.00009700,-0.00010289,0.00000318,-0.00008239,0.00037
 362,-0.00031126,-0.00007958,0.00000074,-0.00014827,0.00021405,-0.00014
 423,0.00004873,-0.00000912,-0.00002359,-0.00001053,0.00005077,-0.00000
 791,-0.00001822,0.00025013,0.00023774,-0.00003035,-0.00000139,-0.00000
 645,0.00000806,0.00010434,0.00010634,0.00000199,-0.00012269,-0.0001467
 5,0.00002283,-0.00000283,0.00000202,-0.00001495,0.00017223,-0.00006232
 ,0.00005274,-0.00000050,-0.00000348,-0.00000699,-0.00015052,0.00007593
 ,0.00000263,0.00002245,0.00015447,-0.00009297,-0.00003353,0.00000865,-
 0.00001458,-0.00016732,-0.00013787,0.00001655,0.00042110,0.00026740,-0
 .00007931,0.00015585,0.00011982,0.00003936,-0.00006876,-0.00006726,0.0
 0001207,-0.00002150,-0.00000388,0.00000182,0.00000142,0.00000296,-0.00
 000144,0.00000094,-0.00000174,-0.00000148,-0.00031030,0.00017903,-0.00
 003211,-0.00000519,-0.00000538,-0.00002603,0.00083208,-0.00092966,0.00
 021880,0.00000135,-0.00000035,0.00000300,0.00000206,0.00000028,-0.0000
 0216,-0.00000124,0.00000016,0.00000067,0.00000060,0.00000133,-0.000000
 28,-0.00000104,-0.00000027,0.00000011,0.00000064,0.00000018,0.00000107
 ,-0.00000009,-0.00000071,-0.00000007,0.00000001,0.00000025,-0.00000006
 ,0.00000030,0.00000014,-0.00000026,0.00000025,-0.00000009,-0.00000061,
 -0.00008512,0.00020197,-0.00002144,-0.00333347,-0.00353160,0.00408808,
 -0.00019533,-0.00013944,-0.00034483,-0.00117536,0.00028792,-0.00007085
 ,-0.00015852,0.00014567,0.00000169,-0.00014906,-0.00008207,-0.00037954
 ,0.00014145,-0.00011880,-0.00008454,-0.21247092,0.01491684,0.13451642,
 -0.01653742,0.00110567,0.01495863,0.00717463,0.00041040,-0.00590932,0.
 22570743,-0.00001776,0.00006568,-0.00000519,-0.00009277,-0.00016198,0.
 00015190,-0.00003578,-0.00004544,0.00038105,0.00006475,-0.00005568,0.0
 0000061,-0.00044304,0.00069352,-0.00038505,-0.00031518,-0.00020482,-0.
 00025879,0.00002865,-0.00016161,0.00003795,-0.00003626,0.00005929,-0.0
 0001063,0.00001358,-0.00000618,-0.00003266,0.00025384,0.00021251,-0.00
 011964,0.00000815,0.00000247,-0.00000444,0.00013704,0.00010239,0.00000
 026,-0.00014765,-0.00013506,0.00000600,-0.00000176,0.00000169,-0.00000
 383,0.00021843,-0.00007815,0.00002371,-0.00000032,0.00000067,-0.000004
 85,-0.00015639,-0.00000290,0.00000442,-0.00012418,0.00015293,-0.000051
 43,-0.00000059,0.00001426,-0.00000672,0.00007197,-0.00009761,0.0000170
 9,0.00123113,0.00018538,0.00022142,0.00020048,0.00010639,0.00001414,-0
 .00032950,-0.00018623,0.00000979,-0.00000503,0.00000202,0.00000208,0.0
 0000034,0.00000203,0.00000046,-0.00000246,-0.00000101,-0.00000115,-0.0
 0025688,0.00021288,-0.00003753,-0.00001010,-0.00000765,-0.00000924,-0.
 00029523,-0.00134295,0.00068525,-0.00000076,0.00000104,-0.00000093,-0.
 00000022,0.00000026,0.00000030,0.00000014,0.00000058,-0.00000064,-0.00
 000030,-0.00000051,-0.00000041,-0.00000090,0.00000005,0.00000022,0.000
 00047,-0.00000013,0.00000026,0.00000023,0.00000032,0.00000028,-0.00000
 002,0.00000005,-0.00000013,0.00000018,0.00000006,-0.00000008,-0.000000
 11,0.00000003,0.00000018,-0.00004971,0.00032637,-0.00029406,-0.0259787
 3,-0.00586289,0.02489742,-0.00017914,-0.00010715,-0.00022028,-0.000630
 84,-0.00239362,-0.00008603,0.00052328,-0.00014379,0.00077945,-0.000069
 96,-0.00024051,-0.00005575,-0.00004149,0.00009037,-0.00032823,0.016646
 90,-0.04588330,-0.01979586,0.00809732,0.00061862,-0.00656537,0.0146099
 6,0.00075068,-0.00857225,-0.01288376,0.05351665,-0.00009079,-0.0001536
 6,-0.00000313,0.00002921,0.00010381,-0.00010328,0.00037970,0.00025282,
 -0.00012197,-0.00010626,0.00010267,-0.00000311,-0.00022918,-0.00051674
 ,0.00014213,0.00037955,0.00011497,0.00013799,-0.00025955,0.00012499,-0
 .00004651,-0.00001488,0.00003306,0.00000435,-0.00004509,0.00000590,0.0
 0001290,-0.00033123,-0.00028538,0.00006756,0.00000681,0.00002048,-0.00
 002140,-0.00012626,-0.00011224,-0.00000268,0.00013969,0.00015153,0.000
 00474,0.00000162,-0.00000083,-0.00000218,-0.00019387,0.00007927,-0.000
 00472,-0.00000162,0.00000540,0.00000050,0.00017386,-0.00006906,-0.0000
 0667,0.00006969,-0.00011925,0.00001539,-0.00000884,-0.00002328,0.00000
 218,0.00023646,0.00012137,0.00000043,0.00018716,0.00015578,0.00002295,
 -0.00015368,-0.00014462,-0.00006359,-0.00005095,-0.00000834,-0.0000287
 8,0.00002591,0.00000498,-0.00000038,-0.00000245,-0.00000349,0.00000188
 ,-0.00000227,0.00000213,0.00000166,0.00032281,-0.00012624,0.00006706,-
 0.00000017,0.00000016,0.00000970,-0.00102874,-0.00058218,0.00009098,-0
 .00000253,0.00000062,-0.00000428,-0.00000323,-0.00000048,0.00000291,0.
 00000166,0.00000051,-0.00000099,-0.00000004,-0.00000191,0.00000052,0.0
 0000075,0.00000063,-0.00000015,-0.00000100,-0.00000053,-0.00000126,0.0
 0000018,0.00000083,0.00000007,0.00000008,0.00000004,-0.00000005,-0.000
 00067,-0.00000023,0.00000030,-0.00000018,0.,0.00000079,0.00007803,-0.0
 0021560,-0.00039870,0.00938074,0.00919869,-0.01201019,-0.00006689,-0.0
 0038423,0.00014110,0.00046687,0.00227312,0.00054630,-0.00017079,0.0000
 9303,-0.00036741,0.00002226,-0.00036533,0.00028814,-0.00027354,-0.0002
 0078,0.00076922,0.13463616,-0.02075122,-0.14302443,-0.01377211,0.00096
 466,0.00912141,0.01704277,0.00063721,-0.01019530,-0.14664519,0.0096169
 3,0.15495799\\-0.00000058,-0.00000039,0.00000283,0.00000477,0.00000269
 ,-0.00000114,-0.00002177,-0.00001030,0.00000243,-0.00000264,0.00000068
 ,0.00000244,0.00001765,0.00001136,-0.00001184,0.00000089,-0.00000028,0
 .00000458,-0.00000292,-0.00000252,0.00000176,0.00000023,0.00001651,0.0
 0000086,-0.00000542,0.00000251,-0.00000036,0.00000587,0.00000421,0.000
 00111,-0.00000009,0.00000043,-0.00000038,0.00000912,0.00000299,0.00000
 241,-0.00000484,-0.00000214,0.00000092,-0.00000015,-0.00000032,0.00000
 072,0.00000186,-0.00000037,0.00000012,-0.00000123,0.00000024,0.0000005
 3,-0.00000706,-0.00001644,-0.00000407,-0.00000311,0.00000082,-0.000000
 06,-0.00000073,-0.00000032,-0.00000033,0.00000897,-0.00000621,-0.00000
 372,0.00000173,-0.00000088,0.00000278,0.00000067,0.,-0.00000189,-0.000
 00015,-0.00000016,-0.00000097,-0.00000229,-0.00000126,0.00000146,0.000
 00127,-0.00000038,0.00000090,-0.00000068,-0.00000036,0.00000035,-0.000
 00168,-0.00000059,-0.00000031,0.00000054,0.00000008,0.00000010,-0.0000
 0150,0.00000033,0.00000003,0.00000044,-0.00000114,0.00000106,0.0000001
 9,-0.00000108,0.00000047,0.00000069,-0.00000110,0.00000089,0.00000024,
 -0.00000152,0.00000015,-0.00000001,-0.00000150,0.00000147,-0.00000002,
 -0.00000119,0.00000082,0.00000009,-0.00000173,0.00000172,0.00000068,-0
 .00000166,0.00000076,0.00000043,-0.00000189,0.00000107,0.00000030,-0.0
 0000183,0.00000109,0.00000090,0.00000133,-0.00000180,-0.00000164,0.000
 00794,0.00000220,0.00000010,0.00000160,-0.00000051,0.00000130,0.000005
 43,-0.00000522,-0.00000024,-0.00000021,-0.00000037,0.00000085,0.000000
 31,-0.00000088,0.00000017,-0.00000191,-0.00000018,-0.00000085,-0.00000
 504,0.00000077,0.00000018,0.00000151,-0.00000189,-0.00000070,0.0000014
 0,-0.00000134,0.00000016,0.00000236,-0.00000155\\\@
 The archive entry for this job was punched.


 I WANT TO KNOW HOW GOD CREATED THE WORLD.  I AM NOT INTERESTED IN
 THIS OR THAT PHENOMENON, IN THE SPECTRUM OF THIS OR THAT ELEMENT.
 I WANT TO KNOW HIS THOUGHTS, THE REST ARE DETAILS.
     -- ALBERT EINSTEIN
 Job cpu time:       0 days 18 hours 47 minutes  8.6 seconds.
 Elapsed time:       0 days  0 hours 17 minutes 49.9 seconds.
 File lengths (MBytes):  RWF=   4702 Int=      0 D2E=      0 Chk=     60 Scr=      1
 Normal termination of Gaussian 16 at Mon Oct  7 22:35:23 2024.
