 Entering Gaussian System, Link 0=g16
 Initial command:
 /home/users/sutd/1008721/g16/l1.exe "/home/users/sutd/1008721/scratch/g16/scratch/Gau-3466954.inp" -scrdir="/home/users/sutd/1008721/scratch/g16/scratch/"
 Entering Link 1 = /home/users/sutd/1008721/g16/l1.exe PID=   3466955.
  
 Copyright (c) 1988-2019, Gaussian, Inc.  All Rights Reserved.
  
 This is part of the Gaussian(R) 16 program.  It is based on
 the Gaussian(R) 09 system (copyright 2009, Gaussian, Inc.),
 the Gaussian(R) 03 system (copyright 2003, Gaussian, Inc.),
 the Gaussian(R) 98 system (copyright 1998, Gaussian, Inc.),
 the Gaussian(R) 94 system (copyright 1995, Gaussian, Inc.),
 the Gaussian 92(TM) system (copyright 1992, Gaussian, Inc.),
 the Gaussian 90(TM) system (copyright 1990, Gaussian, Inc.),
 the Gaussian 88(TM) system (copyright 1988, Gaussian, Inc.),
 the Gaussian 86(TM) system (copyright 1986, Carnegie Mellon
 University), and the Gaussian 82(TM) system (copyright 1983,
 Carnegie Mellon University). Gaussian is a federally registered
 trademark of Gaussian, Inc.
  
 This software contains proprietary and confidential information,
 including trade secrets, belonging to Gaussian, Inc.
  
 This software is provided under written license and may be
 used, copied, transmitted, or stored only in accord with that
 written license.
  
 The following legend is applicable only to US Government
 contracts under FAR:
  
                    RESTRICTED RIGHTS LEGEND
  
 Use, reproduction and disclosure by the US Government is
 subject to restrictions as set forth in subparagraphs (a)
 and (c) of the Commercial Computer Software - Restricted
 Rights clause in FAR 52.227-19.
  
 Gaussian, Inc.
 340 Quinnipiac St., Bldg. 40, Wallingford CT 06492
  
  
 ---------------------------------------------------------------
 Warning -- This program may not be used in any manner that
 competes with the business of Gaussian, Inc. or will provide
 assistance to any competitor of Gaussian, Inc.  The licensee
 of this program is prohibited from giving any competitor of
 Gaussian, Inc. access to this program.  By using this program,
 the user acknowledges that Gaussian, Inc. is engaged in the
 business of creating and licensing software in the field of
 computational chemistry and represents and warrants to the
 licensee that it is not a competitor of Gaussian, Inc. and that
 it will not use this program in any manner prohibited above.
 ---------------------------------------------------------------
  

 Cite this work as:
 Gaussian 16, Revision C.01,
 M. J. Frisch, G. W. Trucks, H. B. Schlegel, G. E. Scuseria, 
 M. A. Robb, J. R. Cheeseman, G. Scalmani, V. Barone, 
 G. A. Petersson, H. Nakatsuji, X. Li, M. Caricato, A. V. Marenich, 
 J. Bloino, B. G. Janesko, R. Gomperts, B. Mennucci, H. P. Hratchian, 
 J. V. Ortiz, A. F. Izmaylov, J. L. Sonnenberg, D. Williams-Young, 
 F. Ding, F. Lipparini, F. Egidi, J. Goings, B. Peng, A. Petrone, 
 T. Henderson, D. Ranasinghe, V. G. Zakrzewski, J. Gao, N. Rega, 
 G. Zheng, W. Liang, M. Hada, M. Ehara, K. Toyota, R. Fukuda, 
 J. Hasegawa, M. Ishida, T. Nakajima, Y. Honda, O. Kitao, H. Nakai, 
 T. Vreven, K. Throssell, J. A. Montgomery, Jr., J. E. Peralta, 
 F. Ogliaro, M. J. Bearpark, J. J. Heyd, E. N. Brothers, K. N. Kudin, 
 V. N. Staroverov, T. A. Keith, R. Kobayashi, J. Normand, 
 K. Raghavachari, A. P. Rendell, J. C. Burant, S. S. Iyengar, 
 J. Tomasi, M. Cossi, J. M. Millam, M. Klene, C. Adamo, R. Cammi, 
 J. W. Ochterski, R. L. Martin, K. Morokuma, O. Farkas, 
 J. B. Foresman, and D. J. Fox, Gaussian, Inc., Wallingford CT, 2019.
 
 ******************************************
 Gaussian 16:  ES64L-G16RevC.01  3-Jul-2019
                15-Oct-2025 
 ******************************************
 %nprocshared=64
 Will use up to   64 processors via shared memory.
 %mem=128GB
 %chk=06BN-1_ethanol_m062x_b3lyp_m062x.chk
 ----------------------------------------------------------------------
 # td=(nstates=3,root=2) m062x scrf=(smd,solvent=ethanol,correctedlr,no
 neq=save) def2svp
 ----------------------------------------------------------------------
 1/30=1,38=1,172=1/1;
 2/12=2,17=6,18=5,40=1/2;
 3/5=43,7=101,11=9,25=1,30=1,70=9032201,71=1,72=4,74=-55/1,2,3,8;
 4//1;
 5/5=2,38=5,53=4/2;
 8/6=1,10=1,107=2,108=3/1;
 9/8=2,15=1,41=3,42=1,70=2,73=22/14;
 10/5=4,13=10,28=2,74=20/2;
 6/7=2,8=2,9=2,10=2,22=-1/1;
 99/5=1,9=1/99;
 -------------------
 naphNHR_WB97XD_EtOH
 -------------------
 Symbolic Z-matrix:
 Charge =  0 Multiplicity = 1
 O                    -2.83359  -2.41146  -0.87702 
 C                     0.99365   0.55094  -0.45791 
 C                     1.88617  -0.57717  -0.44841 
 O                    -3.60323   2.1032   -0.60234 
 N                     3.25923  -0.3284   -0.33016 
 H                     3.45355   0.48224   0.25308 
 C                    -0.91548  -1.02111  -0.67107 
 N                    -3.18867  -0.15587  -0.7236 
 C                    -0.42218   0.30927  -0.55182 
 C                     1.36381  -1.88002  -0.5764 
 H                     2.0335   -2.74088  -0.56966 
 C                    -1.33174   1.41065  -0.52952 
 C                    -0.83167   2.73922  -0.42754 
 H                    -1.54112   3.56785  -0.4105 
 C                     0.53622   2.96562  -0.36511 
 H                     0.91389   3.99086  -0.30654 
 C                    -2.75801   1.18282  -0.61613 
 C                     1.45011   1.89872  -0.38599 
 H                     2.51801   2.11911  -0.37379 
 C                    -2.34355  -1.26994  -0.76498 
 C                     4.2005   -1.41252  -0.15087 
 H                     4.0607   -2.15862  -0.94604 
 H                     4.0747   -1.94709   0.81179 
 C                    -4.63327  -0.41152  -0.82648 
 H                    -4.77414  -1.19659  -1.58167 
 H                    -5.09345   0.51353  -1.19299 
 C                    -0.00482  -2.10016  -0.69614 
 H                    -0.39273  -3.11559  -0.79276 
 C                     5.6552   -0.94113  -0.299 
 C                    -5.29863  -0.85342   0.48291 
 H                    -6.35415  -1.08095   0.2452 
 H                    -4.84762  -1.80627   0.80947 
 C                    -5.24828   0.15922   1.63076 
 H                    -5.68507   1.11705   1.2971 
 H                    -4.19561   0.379     1.88234 
 C                    -5.97218  -0.32898   2.88557 
 H                    -5.53467  -1.27002   3.26176 
 H                    -7.04093  -0.52041   2.68636 
 H                    -5.91447   0.41223   3.70008 
 H                     6.31076  -1.82286  -0.22913 
 N                     6.07168  -0.01692   0.73946 
 H                     5.80229  -0.45522  -1.27107 
 C                     6.13446  -0.43909   2.11469 
 H                     6.03718  -1.52689   2.19413 
 H                     7.08648  -0.10141   2.54995 
 H                     5.31843   0.05393   2.67119 
 C                     6.36421   1.35168   0.39929 
 H                     5.50446   1.7793   -0.14059 
 H                     6.58574   1.9343    1.29976 
 H                     7.22608   1.3692   -0.2877 
 
                          Input orientation:                          
 ---------------------------------------------------------------------
 Center     Atomic      Atomic             Coordinates (Angstroms)
 Number     Number       Type             X           Y           Z
 ---------------------------------------------------------------------
      1          8           0       -2.833594   -2.411456   -0.877022
      2          6           0        0.993648    0.550943   -0.457905
      3          6           0        1.886170   -0.577169   -0.448405
      4          8           0       -3.603230    2.103200   -0.602339
      5          7           0        3.259225   -0.328399   -0.330162
      6          1           0        3.453551    0.482237    0.253081
      7          6           0       -0.915483   -1.021113   -0.671072
      8          7           0       -3.188667   -0.155867   -0.723600
      9          6           0       -0.422180    0.309266   -0.551819
     10          6           0        1.363809   -1.880023   -0.576395
     11          1           0        2.033503   -2.740884   -0.569663
     12          6           0       -1.331744    1.410650   -0.529515
     13          6           0       -0.831674    2.739223   -0.427537
     14          1           0       -1.541118    3.567852   -0.410495
     15          6           0        0.536218    2.965623   -0.365114
     16          1           0        0.913894    3.990860   -0.306540
     17          6           0       -2.758009    1.182822   -0.616132
     18          6           0        1.450112    1.898718   -0.385985
     19          1           0        2.518013    2.119108   -0.373794
     20          6           0       -2.343550   -1.269940   -0.764982
     21          6           0        4.200505   -1.412518   -0.150869
     22          1           0        4.060697   -2.158615   -0.946041
     23          1           0        4.074699   -1.947088    0.811793
     24          6           0       -4.633269   -0.411515   -0.826484
     25          1           0       -4.774138   -1.196592   -1.581670
     26          1           0       -5.093447    0.513533   -1.192988
     27          6           0       -0.004817   -2.100160   -0.696143
     28          1           0       -0.392732   -3.115585   -0.792755
     29          6           0        5.655200   -0.941129   -0.298997
     30          6           0       -5.298629   -0.853419    0.482908
     31          1           0       -6.354148   -1.080952    0.245204
     32          1           0       -4.847621   -1.806266    0.809469
     33          6           0       -5.248278    0.159224    1.630764
     34          1           0       -5.685069    1.117045    1.297099
     35          1           0       -4.195605    0.378996    1.882343
     36          6           0       -5.972184   -0.328984    2.885574
     37          1           0       -5.534672   -1.270019    3.261756
     38          1           0       -7.040932   -0.520405    2.686364
     39          1           0       -5.914473    0.412228    3.700084
     40          1           0        6.310757   -1.822863   -0.229130
     41          7           0        6.071683   -0.016918    0.739456
     42          1           0        5.802287   -0.455222   -1.271066
     43          6           0        6.134461   -0.439092    2.114691
     44          1           0        6.037181   -1.526889    2.194128
     45          1           0        7.086483   -0.101407    2.549950
     46          1           0        5.318431    0.053930    2.671194
     47          6           0        6.364209    1.351678    0.399288
     48          1           0        5.504461    1.779303   -0.140589
     49          1           0        6.585738    1.934302    1.299760
     50          1           0        7.226079    1.369198   -0.287695
 ---------------------------------------------------------------------
                    Distance matrix (angstroms):
                    1          2          3          4          5
     1  O    0.000000
     2  C    4.857906   0.000000
     3  C    5.081781   1.438514   0.000000
     4  O    4.588018   4.854034   6.110776   0.000000
     5  N    6.462246   2.433598   1.400410   7.285605   0.000000
     6  H    7.012759   2.561512   2.017698   7.290914   1.017382
     7  C    2.377944   2.482253   2.845334   4.121898   4.245499
     8  N    2.288514   4.249933   5.099725   2.299989   6.462188
     9  C    3.650069   1.439374   2.474862   3.652373   3.742792
    10  C    4.241579   2.461840   1.409493   6.366963   2.461863
    11  H    4.887906   3.453971   2.172113   7.432293   2.716586
    12  C    4.121263   2.480256   3.783249   2.375832   4.913352
    13  C    5.544296   2.849788   4.287839   2.848965   5.114220
    14  H    6.135166   3.940689   5.378563   2.536595   6.183083
    15  C    6.366370   2.459376   3.792187   4.234983   4.273941
    16  H    7.440347   3.444169   4.672508   4.904607   4.914991
    17  C    3.604526   3.807786   4.969316   1.249674   6.210690
    18  C    6.096626   1.424791   2.514768   5.062103   2.869853
    19  H    7.029861   2.188585   2.770325   6.125529   2.557653
    20  C    1.247299   3.814027   4.297753   3.604347   5.697952
    21  C    7.141689   3.772715   2.478403   8.571020   1.446882
    22  H    6.899271   4.121501   2.734443   8.775932   2.090779
    23  H    7.126868   4.164753   2.873053   8.795180   2.142245
    24  C    2.690938   5.720522   6.532493   2.726722   7.908521
    25  H    2.395440   6.130586   6.784370   3.635759   8.176488
    26  H    3.709762   6.131433   7.103456   2.257577   8.439221
    27  C    2.851596   2.842892   2.440637   5.534041   3.731896
    28  H    2.541792   3.934158   3.428633   6.130194   4.617271
    29  C    8.634558   4.897101   3.789509   9.750820   2.473278
    30  C    3.217652   6.515375   7.250172   3.576833   8.612409
    31  H    3.927331   7.559600   8.284789   4.292401   9.659934
    32  H    2.695702   6.425192   6.959660   4.338852   8.318882
    33  C    4.327596   6.593756   7.467635   3.387030   8.744176
    34  H    5.030709   6.928620   7.952409   2.985703   9.205307
    35  H    4.154009   5.695145   6.582904   3.081790   7.808334
    36  C    5.323961   7.776628   8.539950   4.867545   9.775473
    37  H    5.072296   7.731154   8.325517   5.480904   9.545740
    38  H    5.828850   8.694176   9.461667   5.432924  10.734502
    39  H    6.197976   8.064134   8.890382   5.168372  10.047295
    40  H    9.186150   5.827430   4.601826  10.669601   3.399335
    41  N    9.362199   5.248102   4.386732   9.994962   3.025066
    42  H    8.863440   4.979619   4.003450   9.770183   2.714507
    43  C    9.657462   5.833213   4.963517  10.424401   3.775784
    44  H    9.428949   6.065302   5.011571  10.674048   3.940236
    45  H   10.746553   6.826082   6.021606  11.360774   4.795255
    46  H    9.226238   5.361159   4.680876   9.721706   3.659869
    47  C   10.019467   5.497170   4.948926  10.045789   3.604952
    48  H    9.360980   4.685829   4.328942   9.125139   3.085357
    49  H   10.599425   6.022835   5.607986  10.366368   4.340755
    50  H   10.762791   6.288220   5.685842  10.858715   4.315040
                    6          7          8          9         10
     6  H    0.000000
     7  C    4.711961   0.000000
     8  N    6.743897   2.432853   0.000000
     9  C    3.962206   1.423895   2.810571   0.000000
    10  C    3.261185   2.437594   4.870259   2.825482   0.000000
    11  H    3.616898   3.415321   5.828985   3.915880   1.090696
    12  C    4.936948   2.471191   2.437172   1.428584   4.254025
    13  C    4.890847   3.769146   3.744945   2.467351   5.116614
    14  H    5.908305   4.638741   4.083936   3.448243   6.176202
    15  C    3.880748   4.253835   4.873087   2.830127   4.920349
    16  H    4.367318   5.347839   5.848101   3.924206   5.894278
    17  C    6.311088   2.873195   1.410356   2.494661   5.135366
    18  C    2.535467   3.768651   5.084641   2.461572   3.784519
    19  H    1.986844   4.662430   6.153379   3.457160   4.167287
    20  C    6.141088   1.452622   1.398962   2.496196   3.761951
    21  C    2.076346   5.157242   7.517117   4.949194   2.906282
    22  H    2.963211   5.111936   7.524211   5.132449   2.736322
    23  H    2.568969   5.287555   7.636910   5.212724   3.046389
    24  C    8.207369   3.770636   1.470652   4.281149   6.179321
    25  H    8.595327   3.968526   2.081613   4.718871   6.257160
    26  H    8.668522   4.481397   2.072826   4.719487   6.914149
    27  C    4.419288   1.412191   3.730674   2.449562   1.391380
    28  H    5.369543   2.162149   4.072096   3.433442   2.158440
    29  C    2.679183   6.581695   8.888808   6.209827   4.401648
    30  C    8.856492   4.535610   2.528672   5.118813   6.823791
    31  H    9.931494   5.515634   3.437242   6.144607   7.802589
    32  H    8.628805   4.274363   2.797543   5.090492   6.364583
    33  C    8.816132   5.046262   3.143932   5.298811   7.262904
    34  H    9.219942   5.585192   3.454787   5.636400   7.885371
    35  H    7.821428   4.386278   2.844458   4.490962   6.485032
    36  C    9.820009   6.220852   4.561148   6.559389   8.258798
    37  H    9.639019   6.071738   4.756904   6.570774   7.917863
    38  H   10.819442   7.003157   5.157585   7.414989   9.117775
    39  H    9.982315   6.793480   5.227019   6.946550   8.747347
    40  H    3.702653   7.284000   9.657248   7.069833   4.959451
    41  N    2.709305   7.198506   9.376242   6.629030   5.231319
    42  H    2.952696   6.768209   9.012579   6.312349   4.713036
    43  C    3.391418   7.602693   9.749709   7.117574   5.663687
    44  H    3.805180   7.536890   9.772876   7.255001   5.444346
    45  H    4.337562   8.674808  10.784146   8.134473   6.759179
    46  H    3.083585   7.154589   9.161842   6.588446   5.470470
    47  C    3.041255   7.731088   9.736067   6.931544   6.033229
    48  H    2.458371   7.024203   8.924980   6.120065   5.543067
    49  H    3.607579   8.299818  10.198127   7.428324   6.733318
    50  H    3.912941   8.493856  10.534836   7.725871   6.708725
                   11         12         13         14         15
    11  H    0.000000
    12  C    5.344318   0.000000
    13  C    6.185549   1.423227   0.000000
    14  H    7.252820   2.170604   1.090975   0.000000
    15  C    5.903213   2.436032   1.387906   2.163346   0.000000
    16  H    6.829285   3.427841   2.151335   2.493356   1.094158
    17  C    6.193239   1.446942   2.483691   2.685420   3.754107
    18  C    4.679742   2.827991   2.432020   3.425502   1.404964
    19  H    4.888009   3.917498   3.407027   4.310075   2.155035
    20  C    4.621733   2.874849   4.298026   4.916685   5.137407
    21  C    2.576013   6.222494   6.529650   7.605112   5.713232
    22  H    2.142478   6.480090   6.942115   8.028671   6.246378
    23  H    2.589404   6.504086   6.897097   7.965297   6.167713
    24  C    7.066666   3.782664   4.953628   5.056660   6.192053
    25  H    7.053579   4.444639   5.689085   5.875712   6.855941
    26  H    7.859592   3.923700   4.868503   4.749758   6.196067
    27  C    2.140391   3.756899   4.916856   5.879471   5.105336
    28  H    2.465114   4.630102   5.882587   6.792146   6.166597
    29  C    4.053279   7.375730   7.459293   8.492958   6.439803
    30  C    7.643990   4.678374   5.804281   5.870664   7.024932
    31  H    8.589067   5.659754   6.748632   6.723584   8.014013
    32  H    7.079928   4.950032   6.190273   6.426696   7.289464
    33  C    8.141059   4.644579   5.513564   5.434015   6.731998
    34  H    8.828634   4.730133   5.400118   5.108293   6.699597
    35  H    7.385646   3.883693   4.714048   4.740486   5.842247
    36  C    9.046930   6.018542   6.842181   6.758975   7.986282
    37  H    8.609326   6.262933   7.197437   7.269037   8.243213
    38  H    9.893311   6.831228   7.673098   7.520129   8.881279
    39  H    9.557362   6.315676   6.948885   6.780933   8.040962
    40  H    4.387896   8.303834   8.477400   9.525998   7.502892
    41  N    5.043876   7.645847   7.524262   8.492803   6.384121
    42  H    4.463177   7.411193   7.411171   8.417322   6.344636
    43  C    5.414966   8.133731   8.067939   9.019239   7.005843
    44  H    5.014156   8.387397   8.500236   9.495844   7.549369
    45  H    6.498571   9.090433   8.923666   9.831744   7.798092
    46  H    5.394895   7.504003   7.391666   8.300474   6.369198
    47  C    6.036799   7.752022   7.374934   8.249932   6.095458
    48  H    5.715220   6.857176   6.414857   7.274059   5.112847
    49  H    6.787853   8.142910   7.658293   8.463997   6.358626
    50  H    6.628358   8.561339   8.174589   9.039519   6.878140
                   16         17         18         19         20
    16  H    0.000000
    17  C    4.632904   0.000000
    18  C    2.161226   4.274782   0.000000
    19  H    2.466004   5.363932   1.090474   0.000000
    20  C    6.204605   2.491982   4.957409   5.939147   0.000000
    21  C    6.326337   7.441316   4.310942   3.918272   6.574353
    22  H    6.937390   7.600578   4.857033   4.583258   6.468145
    23  H    6.819134   7.649915   4.807635   4.512520   6.643694
    24  C    7.100864   2.470376   6.522173   7.599330   2.446117
    25  H    7.803161   3.264759   7.053502   8.101129   2.565174
    26  H    6.997552   2.496994   6.737073   7.821974   3.305435
    27  C    6.172224   4.285375   4.266619   4.926541   2.482675
    28  H    7.241908   4.909382   5.357683   6.004163   2.685678
    29  C    6.841385   8.682962   5.074945   4.383217   8.019056
    30  C    7.917431   3.436410   7.339941   8.406530   3.234689
    31  H    8.879872   4.335757   8.377548   9.451920   4.140180
    32  H    8.249073   3.915797   7.403881   8.429783   3.006146
    33  C    7.510456   3.506813   7.208436   8.256796   4.027351
    34  H    7.374062   3.497493   7.372557   8.431285   4.595174
    35  H    6.629008   2.992523   6.271283   7.293203   3.627317
    36  C    8.733196   4.987828   8.411672   9.418072   5.232489
    37  H    9.055031   5.363236   8.493181   9.463041   5.137887
    38  H    9.622278   5.670176   9.348225  10.378103   5.876988
    39  H    8.688282   5.402481   8.552352   9.519283   5.959698
    40  H    7.932938   9.561717   6.123776   5.472200   8.688492
    41  N    6.615072   9.013349   5.127884   4.293076   8.639997
    42  H    6.677899   8.740183   5.026513   4.268340   8.202106
    43  C    7.262311   9.442670   5.801884   5.080909   8.992191
    44  H    7.933912   9.622654   6.279568   5.680850   8.891513
    45  H    7.937697  10.420525   6.662499   5.860877  10.063785
    46  H    6.615608   8.792599   5.264359   4.623770   8.500935
    47  C    6.096672   9.180112   5.006421   3.997478   9.168068
    48  H    5.098218   8.297611   4.063524   3.014751   8.442691
    49  H    6.243352   9.567705   5.405336   4.402422   9.708888
    50  H    6.834994   9.991227   5.801021   4.768193   9.938342
                   21         22         23         24         25
    21  C    0.000000
    22  H    1.099320   0.000000
    23  H    1.108292   1.770571   0.000000
    24  C    8.915942   8.868579   8.992811   0.000000
    25  H    9.090546   8.909760   9.197490   1.098406   0.000000
    26  H    9.548467   9.539377   9.701995   1.096268   1.782571
    27  C    4.295918   4.073607   4.351983   4.928598   4.934270
    28  H    4.940676   4.557666   4.888548   5.029442   4.847849
    29  C    1.536323   2.107932   2.178025  10.315587  10.511023
    30  C    9.536656   9.557323   9.442646   1.533783   2.157624
    31  H   10.567285  10.537999  10.480079   2.134967   2.418113
    32  H    9.107462   9.086479   8.923432   2.160467   2.468734
    33  C    9.742899   9.933243   9.592975   2.596545   3.518917
    34  H   10.306303  10.523383  10.240972   2.819997   3.803948
    35  H    8.822592   9.088770   8.657637   2.855556   3.849229
    36  C   10.671346  10.894380  10.385504   3.947009   4.705776
    37  H   10.316976  10.515049   9.939857   4.273554   4.903323
    38  H   11.628227  11.795095  11.362513   4.260141   4.879723
    39  H   10.975988  11.300430  10.662652   4.775966   5.637871
    40  H    2.151202   2.385259   2.469597  11.050812  11.184654
    41  N    2.498336   3.387009   2.778261  10.826074  11.153972
    42  H    2.176456   2.457707   3.090069  10.445113  10.606926
    43  C    3.133769   4.077418   2.866045  11.162226  11.542722
    44  H    2.980851   3.763805   2.436956  11.145701  11.456455
    45  H    4.164409   5.060577   3.936822  12.200371  12.607301
    46  H    3.371093   4.422854   3.001385  10.558727  11.023185
    47  C    3.553177   4.408881   4.036567  11.205172  11.596579
    48  H    3.447917   4.270879   4.103321  10.394407  10.797327
    49  H    4.358310   5.307676   4.648507  11.657182  12.130619
    50  H    4.112270   4.785241   4.705085  12.004390  12.339484
                   26         27         28         29         30
    26  H    0.000000
    27  C    5.742160   0.000000
    28  H    5.952093   1.091284   0.000000
    29  C   10.883413   5.791103   6.445893   0.000000
    30  C    2.172391   5.564977   5.550904  10.982051   0.000000
    31  H    2.490009   6.499148   6.384009  12.022485   1.105620
    32  H    3.074367   5.079960   4.911973  10.596528   1.103616
    33  C    2.850102   6.165484   6.338308  11.127470   1.531520
    34  H    2.629596   6.825590   7.091648  11.635519   2.166788
    35  H    3.206537   5.509765   5.816364  10.175428   2.166547
    36  C    4.256370   7.181590   7.240548  12.071134   2.549806
    37  H    4.818763   6.850795   6.803287  11.747356   2.819799
    38  H    4.462185   7.965168   7.939634  13.049182   2.828734
    39  H    4.962509   7.782219   7.944853  12.315907   3.511602
    40  H   11.680909   6.338886   6.850224   1.100950  11.671532
    41  N   11.343538   6.582150   7.330625   1.451209  11.403927
    42  H   10.938995   6.062905   6.759036   1.096658  11.245680
    43  C   11.743686   6.953465   7.630276   2.511498  11.556380
    44  H   11.812144   6.722205   7.265618   2.589343  11.484007
    45  H   12.756897   8.051004   8.729124   3.296999  12.578918
    46  H   11.115320   6.657029   7.393386   3.150490  10.878136
    47  C   11.598091   7.326640   8.187408   2.499452  11.869761
    48  H   10.724988   6.760992   7.691693   2.729206  11.136729
    49  H   12.026460   7.980973   8.864481   3.419068  12.234248
    50  H   12.382344   8.030513   8.855204   2.793814  12.743711
                   31         32         33         34         35
    31  H    0.000000
    32  H    1.764681   0.000000
    33  C    2.163507   2.167534   0.000000
    34  H    2.526923   3.079748   1.104328   0.000000
    35  H    3.077496   2.520229   1.104406   1.762308   0.000000
    36  C    2.771806   2.785178   1.528704   2.167184   2.159616
    37  H    3.131593   2.602559   2.187440   3.095250   2.532811
    38  H    2.597142   3.160188   2.188560   2.539619   3.090511
    39  H    3.789340   3.796781   2.188587   2.514703   2.501958
    40  H   12.695481  11.206621  11.874307  12.444769  10.940299
    41  N   12.481095  11.065165  11.356363  11.824469  10.338285
    42  H   12.266602  10.935012  11.441728  11.875472  10.516547
    43  C   12.644063  11.143558  11.408721  11.949532  10.365014
    44  H   12.551582  10.976076  11.424620  12.050153  10.413430
    45  H   13.671939  12.180257  12.371708  12.890570  11.312029
    46  H   11.975913  10.501189  10.618329  11.139810   9.552216
    47  C   12.949828  11.655299  11.738328  12.084958  10.707718
    48  H   12.204774  10.996568  11.017429  11.300934  10.007217
    49  H   13.328334  12.039682  11.970982  12.297993  10.908517
    50  H   13.809771  12.532421  12.678884  13.010492  11.668095
                   36         37         38         39         40
    36  C    0.000000
    37  H    1.103846   0.000000
    38  H    1.103879   1.778150   0.000000
    39  H    1.102793   1.779420   1.779422   0.000000
    40  H   12.759455  12.361477  13.728223  13.034209   0.000000
    41  N   12.237563  11.943188  13.265920  12.353842   2.063190
    42  H   12.487264  12.236707  13.439262  12.757244   1.792935
    43  C   12.131663  11.754780  13.188040  12.182571   2.727526
    44  H   12.088752  11.623837  13.126018  12.201234   2.456547
    45  H   13.064961  12.695112  14.134285  13.061833   3.359828
    46  H   11.299140  10.949495  12.372710  11.285616   3.594293
    47  C   12.696174  12.516005  13.727098  12.749269   3.236584
    48  H   12.054705  11.947250  13.063966  12.124839   3.692364
    49  H   12.858409  12.689422  13.915258  12.819264   4.065637
    50  H   13.680190  13.505585  14.695687  13.765619   3.321219
                   41         42         43         44         45
    41  N    0.000000
    42  H    2.075303   0.000000
    43  C    1.439946   3.402051   0.000000
    44  H    2.096968   3.634723   1.095023   0.000000
    45  H    2.077221   4.046543   1.099922   1.805448   0.000000
    46  H    2.074613   4.004343   1.103934   1.800884   1.778999
    47  C    1.440257   2.524030   2.490431   3.408012   2.694157
    48  H    2.079094   2.521861   3.225595   4.082352   3.644018
    49  H    2.094147   3.596216   2.549659   3.616718   2.440867
    50  H    2.075810   2.514500   3.198906   3.995027   3.199124
                   46         47         48         49         50
    46  H    0.000000
    47  C    2.817687   0.000000
    48  H    3.304186   1.101588   0.000000
    49  H    2.650037   1.095160   1.807703   0.000000
    50  H    3.758201   1.102303   1.775893   1.802607   0.000000
 Stoichiometry    C20H25N3O2
 Framework group  C1[X(C20H25N3O2)]
 Deg. of freedom   144
 Full point group                 C1      NOp   1
 Largest Abelian subgroup         C1      NOp   1
 Largest concise Abelian subgroup C1      NOp   1
                         Standard orientation:                         
 ---------------------------------------------------------------------
 Center     Atomic      Atomic             Coordinates (Angstroms)
 Number     Number       Type             X           Y           Z
 ---------------------------------------------------------------------
      1          8           0       -2.833594   -2.411456   -0.877022
      2          6           0        0.993648    0.550943   -0.457905
      3          6           0        1.886170   -0.577169   -0.448405
      4          8           0       -3.603230    2.103200   -0.602339
      5          7           0        3.259225   -0.328399   -0.330162
      6          1           0        3.453551    0.482237    0.253081
      7          6           0       -0.915483   -1.021113   -0.671072
      8          7           0       -3.188667   -0.155867   -0.723600
      9          6           0       -0.422180    0.309266   -0.551819
     10          6           0        1.363809   -1.880023   -0.576395
     11          1           0        2.033503   -2.740884   -0.569663
     12          6           0       -1.331744    1.410650   -0.529515
     13          6           0       -0.831674    2.739223   -0.427537
     14          1           0       -1.541118    3.567852   -0.410495
     15          6           0        0.536218    2.965623   -0.365114
     16          1           0        0.913894    3.990860   -0.306540
     17          6           0       -2.758009    1.182822   -0.616132
     18          6           0        1.450112    1.898718   -0.385985
     19          1           0        2.518013    2.119108   -0.373794
     20          6           0       -2.343550   -1.269940   -0.764982
     21          6           0        4.200505   -1.412518   -0.150869
     22          1           0        4.060697   -2.158615   -0.946041
     23          1           0        4.074699   -1.947088    0.811793
     24          6           0       -4.633269   -0.411515   -0.826484
     25          1           0       -4.774138   -1.196592   -1.581670
     26          1           0       -5.093447    0.513533   -1.192988
     27          6           0       -0.004817   -2.100160   -0.696143
     28          1           0       -0.392732   -3.115585   -0.792755
     29          6           0        5.655200   -0.941129   -0.298997
     30          6           0       -5.298629   -0.853419    0.482908
     31          1           0       -6.354148   -1.080952    0.245204
     32          1           0       -4.847621   -1.806266    0.809469
     33          6           0       -5.248278    0.159224    1.630764
     34          1           0       -5.685069    1.117045    1.297099
     35          1           0       -4.195605    0.378996    1.882343
     36          6           0       -5.972184   -0.328984    2.885574
     37          1           0       -5.534672   -1.270019    3.261756
     38          1           0       -7.040932   -0.520405    2.686364
     39          1           0       -5.914473    0.412228    3.700084
     40          1           0        6.310757   -1.822863   -0.229130
     41          7           0        6.071683   -0.016918    0.739456
     42          1           0        5.802287   -0.455222   -1.271066
     43          6           0        6.134461   -0.439092    2.114691
     44          1           0        6.037181   -1.526889    2.194128
     45          1           0        7.086483   -0.101407    2.549950
     46          1           0        5.318431    0.053930    2.671194
     47          6           0        6.364209    1.351678    0.399288
     48          1           0        5.504461    1.779303   -0.140589
     49          1           0        6.585738    1.934302    1.299760
     50          1           0        7.226079    1.369198   -0.287695
 ---------------------------------------------------------------------
 Rotational constants (GHZ):           0.4675677           0.0947422           0.0882636
 Standard basis: def2SVP (5D, 7F)
 There are   500 symmetry adapted cartesian basis functions of A   symmetry.
 There are   475 symmetry adapted basis functions of A   symmetry.
   475 basis functions,   800 primitive gaussians,   500 cartesian basis functions
    91 alpha electrons       91 beta electrons
       nuclear repulsion energy      2140.1979457665 Hartrees.
 NAtoms=   50 NActive=   50 NUniq=   50 SFac= 1.00D+00 NAtFMM=   60 NAOKFM=F Big=F
 Integral buffers will be    131072 words long.
 Regular integral format.
 Two-electron integral symmetry is turned on.
 ------------------------------------------------------------------------------
 Polarizable Continuum Model (PCM)
 =================================
 Model                : PCM.
 Atomic radii         : SMD-Coulomb.
 Polarization charges : Total charges.
 Charge compensation  : None.
 Solution method      : On-the-fly selection.
 Cavity type          : VdW (van der Waals Surface) (Alpha=1.000).
 Cavity algorithm     : GePol (No added spheres)
                        Default sphere list used, NSphG=   50.
                        Lebedev-Laikov grids with approx.  5.0 points / Ang**2.
                        Smoothing algorithm: York/Karplus (Gamma=1.0000).
                        Polarization charges: spherical gaussians, with
                                              point-specific exponents (IZeta= 3).
                        Self-potential: point-specific (ISelfS= 7).
                        Self-field    : sphere-specific E.n sum rule (ISelfD= 2).
 1st derivatives      : Analytical E(r).r(x)/FMM algorithm (CHGder, D1EAlg=3).
                        Cavity 1st derivative terms included.
 Solvent              : Ethanol, Eps=  24.852000 Eps(inf)=   1.852593
 ------------------------------------------------------------------------------
 ------------------------------------------------------------------------------
 Atomic radii for non-electrostatic terms: SMD-CDS.
 ------------------------------------------------------------------------------
 Nuclear repulsion after PCM non-electrostatic terms =     2140.1953800624 Hartrees.
 One-electron integrals computed using PRISM.
   1 Symmetry operations used in ECPInt.
 ECPInt:  NShTT=   25425 NPrTT=   90925 LenC2=   20719 LenP2D=   49979.
 LDataN:  DoStor=T MaxTD1= 4 Len=   56
 NBasis=   475 RedAO= T EigKep=  2.20D-04  NBF=   475
 NBsUse=   475 1.00D-06 EigRej= -1.00D+00 NBFU=   475
 ExpMin= 1.22D-01 ExpMax= 2.27D+03 ExpMxC= 3.41D+02 IAcc=3 IRadAn=         5 AccDes= 0.00D+00
 Harris functional with IExCor= 1009 and IRadAn=       5 diagonalized for initial guess.
 HarFok:  IExCor= 1009 AccDes= 0.00D+00 IRadAn=         5 IDoV= 1 UseB2=F ITyADJ=14
 ICtDFT=  3500011 ScaDFX=  1.000000  1.000000  1.000000  1.000000
 FoFCou: FMM=F IPFlag=           0 FMFlag=      100000 FMFlg1=           0
         NFxFlg=           0 DoJE=T BraDBF=F KetDBF=T FulRan=T
         wScrn=  0.000000 ICntrl=       500 IOpCl=  0 I1Cent=   200000004 NGrid=           0
         NMat0=    1 NMatS0=      1 NMatT0=    0 NMatD0=    1 NMtDS0=    0 NMtDT0=    0
 Petite list used in FoFCou.
 Requested convergence on RMS density matrix=1.00D-08 within 128 cycles.
 Requested convergence on MAX density matrix=1.00D-06.
 Requested convergence on             energy=1.00D-06.
 No special actions if energy rises.
 Inv3:  Mode=1 IEnd=    37002432.
 Iteration    1 A*A^-1 deviation from unit magnitude is 5.55D-15 for   3491.
 Iteration    1 A*A^-1 deviation from orthogonality  is 2.68D-15 for   1381    619.
 Iteration    1 A^-1*A deviation from unit magnitude is 5.55D-15 for   3491.
 Iteration    1 A^-1*A deviation from orthogonality  is 6.31D-14 for   2631   2577.
 Error on total polarization charges =  0.06193
 SCF Done:  E(RM062X) =  -1090.67912692     A.U. after   14 cycles
            NFock= 14  Conv=0.70D-08     -V/T= 2.0111
 SMD-CDS (non-electrostatic) energy       (kcal/mol) =      -1.61
 (included in total energy above)
 DoSCS=F DFT=T ScalE2(SS,OS)=  1.000000  1.000000
 ExpMin= 1.22D-01 ExpMax= 2.27D+03 ExpMxC= 3.41D+02 IAcc=3 IRadAn=         5 AccDes= 0.00D+00
 HarFok:  IExCor=  205 AccDes= 0.00D+00 IRadAn=         5 IDoV=-2 UseB2=F ITyADJ=14
 ICtDFT= 12500011 ScaDFX=  1.000000  1.000000  1.000000  1.000000
 GSVD:  LWork=        -825 too small for GESVD, short by        3500 words or        3500 for optimal perf.
 Range of M.O.s used for correlation:    26   475
 NBasis=   475 NAE=    91 NBE=    91 NFC=    25 NFV=     0
 NROrb=    450 NOA=    66 NOB=    66 NVA=   384 NVB=   384

 **** Warning!!: The largest alpha MO coefficient is  0.12550856D+02

 NEqPCM:  Using equilibrium solvation (IEInf=0, Eps=  24.8520, EpsInf=   1.8526)
 Orbital symmetries:
       Occupied  (A) (A) (A) (A) (A) (A) (A) (A) (A) (A) (A) (A)
                 (A) (A) (A) (A) (A) (A) (A) (A) (A) (A) (A) (A)
                 (A) (A) (A) (A) (A) (A) (A) (A) (A) (A) (A) (A)
                 (A) (A) (A) (A) (A) (A) (A) (A) (A) (A) (A) (A)
                 (A) (A) (A) (A) (A) (A) (A) (A) (A) (A) (A) (A)
                 (A) (A) (A) (A) (A) (A) (A) (A) (A) (A) (A) (A)
                 (A) (A) (A) (A) (A) (A) (A) (A) (A) (A) (A) (A)
                 (A) (A) (A) (A) (A) (A) (A)
       Virtual   (A) (A) (A) (A) (A) (A) (A) (A) (A) (A) (A) (A)
                 (A) (A) (A) (A) (A) (A) (A) (A) (A) (A) (A) (A)
                 (A) (A) (A) (A) (A) (A) (A) (A) (A) (A) (A) (A)
                 (A) (A) (A) (A) (A) (A) (A) (A) (A) (A) (A) (A)
                 (A) (A) (A) (A) (A) (A) (A) (A) (A) (A) (A) (A)
                 (A) (A) (A) (A) (A) (A) (A) (A) (A) (A) (A) (A)
                 (A) (A) (A) (A) (A) (A) (A) (A) (A) (A) (A) (A)
                 (A) (A) (A) (A) (A) (A) (A) (A) (A) (A) (A) (A)
                 (A) (A) (A) (A) (A) (A) (A) (A) (A) (A) (A) (A)
                 (A) (A) (A) (A) (A) (A) (A) (A) (A) (A) (A) (A)
                 (A) (A) (A) (A) (A) (A) (A) (A) (A) (A) (A) (A)
                 (A) (A) (A) (A) (A) (A) (A) (A) (A) (A) (A) (A)
                 (A) (A) (A) (A) (A) (A) (A) (A) (A) (A) (A) (A)
                 (A) (A) (A) (A) (A) (A) (A) (A) (A) (A) (A) (A)
                 (A) (A) (A) (A) (A) (A) (A) (A) (A) (A) (A) (A)
                 (A) (A) (A) (A) (A) (A) (A) (A) (A) (A) (A) (A)
                 (A) (A) (A) (A) (A) (A) (A) (A) (A) (A) (A) (A)
                 (A) (A) (A) (A) (A) (A) (A) (A) (A) (A) (A) (A)
                 (A) (A) (A) (A) (A) (A) (A) (A) (A) (A) (A) (A)
                 (A) (A) (A) (A) (A) (A) (A) (A) (A) (A) (A) (A)
                 (A) (A) (A) (A) (A) (A) (A) (A) (A) (A) (A) (A)
                 (A) (A) (A) (A) (A) (A) (A) (A) (A) (A) (A) (A)
                 (A) (A) (A) (A) (A) (A) (A) (A) (A) (A) (A) (A)
                 (A) (A) (A) (A) (A) (A) (A) (A) (A) (A) (A) (A)
                 (A) (A) (A) (A) (A) (A) (A) (A) (A) (A) (A) (A)
                 (A) (A) (A) (A) (A) (A) (A) (A) (A) (A) (A) (A)
                 (A) (A) (A) (A) (A) (A) (A) (A) (A) (A) (A) (A)
                 (A) (A) (A) (A) (A) (A) (A) (A) (A) (A) (A) (A)
                 (A) (A) (A) (A) (A) (A) (A) (A) (A) (A) (A) (A)
                 (A) (A) (A) (A) (A) (A) (A) (A) (A) (A) (A) (A)
                 (A) (A) (A) (A) (A) (A) (A) (A) (A) (A) (A) (A)
                 (A) (A) (A) (A) (A) (A) (A) (A) (A) (A) (A) (A)
    12 initial guesses have been made.
 Convergence on wavefunction:    0.000001000000000
 Iteration     1 Dimension    12 NMult     0 NNew     12
 CISAX will form    12 AO SS matrices at one time.
 New state      3 was old state      7
 Iteration     2 Dimension    18 NMult    12 NNew      6
 Iteration     3 Dimension    24 NMult    18 NNew      6
 Iteration     4 Dimension    30 NMult    24 NNew      6
 Iteration     5 Dimension    36 NMult    30 NNew      6
 Iteration     6 Dimension    42 NMult    36 NNew      6
 Iteration     7 Dimension    48 NMult    42 NNew      6
 Iteration     8 Dimension    54 NMult    48 NNew      6
 Iteration     9 Dimension    60 NMult    54 NNew      6
 Iteration    10 Dimension    66 NMult    60 NNew      6
 Iteration    11 Dimension    72 NMult    66 NNew      6
 Iteration    12 Dimension    76 NMult    72 NNew      4
 Iteration    13 Dimension    78 NMult    76 NNew      2
 Iteration    14 Dimension    80 NMult    78 NNew      2
 Iteration    15 Dimension    82 NMult    80 NNew      2
 PCM Corrected Linear-Response:
 The state of interest is root number   2
 Excitation energy =    3.3909 eV, Total energy =  -1090.55451493    
 Recompute the excitation energies using the linear response reaction field.
 Convergence on wavefunction:    0.000001000000000
 Iteration     1 Dimension     3 NMult     0 NNew      3
 Iteration     2 Dimension     9 NMult     3 NNew      6
 Iteration     3 Dimension    15 NMult     9 NNew      6
 Iteration     4 Dimension    21 NMult    15 NNew      6
 Iteration     5 Dimension    27 NMult    21 NNew      6
 Iteration     6 Dimension    33 NMult    27 NNew      6
 Iteration     7 Dimension    39 NMult    33 NNew      6
 Iteration     8 Dimension    45 NMult    39 NNew      6
 Iteration     9 Dimension    51 NMult    45 NNew      6
 Iteration    10 Dimension    57 NMult    51 NNew      6
 Iteration    11 Dimension    63 NMult    57 NNew      6
 Iteration    12 Dimension    65 NMult    63 NNew      2
 Iteration    13 Dimension    67 NMult    65 NNew      2
 Iteration    14 Dimension    69 NMult    67 NNew      2
 Iteration    15 Dimension    71 NMult    69 NNew      2
 Iteration    16 Dimension    73 NMult    71 NNew      2
 ***********************************************************************
 Excited states from <AA,BB:AA,BB> singles matrix:
 ***********************************************************************
 
 Ground to excited state transition densities written to RWF  633
 Ground to excited state transition electric dipole moments (Au):
       state          X           Y           Z        Dip. S.      Osc.
         1         2.7459     -0.2171      0.1984      7.6263      0.5527
         2        -0.8971      0.0377      0.0009      0.8062      0.0655
         3        -0.0205     -0.5294     -0.0490      0.2831      0.0292
 Ground to excited state transition velocity dipole moments (Au):
       state          X           Y           Z        Dip. S.      Osc.
         1        -0.3113      0.0354     -0.0231      0.0987      0.6053
         2         0.1179     -0.0024      0.0010      0.0139      0.0761
         3         0.0040      0.0808      0.0083      0.0066      0.0286
 Ground to excited state transition magnetic dipole moments (Au):
       state          X           Y           Z
         1         0.0760      0.4108     -0.1328
         2        -0.0075     -0.1006     -0.0138
         3         0.0408     -0.1126      1.1076
 Ground to excited state transition velocity quadrupole moments (Au):
       state          XX          YY          ZZ          XY          XZ          YZ
         1        -0.4026      0.1933      0.0043      0.1193      0.1862      0.0028
         2        -0.4330     -0.0060     -0.0392      0.0486     -0.1871      0.0046
         3        -0.0127      0.3070     -0.0133     -0.1880     -0.0012     -0.0772
 <0|del|b> * <b|rxdel|0> + <0|del|b> * <b|delr+rdel|0>
 Rotatory Strengths (R) in cgs (10**-40 erg-esu-cm/Gauss)
       state          XX          YY          ZZ    R(velocity)    E-M Angle
         1        26.8935    -60.8846     -5.3539    -13.1150       92.52
         2        -0.5044     -1.1938     -2.1337     -1.2773       93.15
         3        -3.1453     24.2694    -19.9748      0.3831       89.84
 1/2[<0|r|b>*<b|rxdel|0> + (<0|rxdel|b>*<b|r|0>)*]
 Rotatory Strengths (R) in cgs (10**-40 erg-esu-cm/Gauss)
       state          XX          YY          ZZ     R(length)
         1      -147.6577     63.0706     18.6347    -21.9841
         2        -4.7883      2.6845      0.0083     -0.6985
         3         0.5928    -42.1704     38.3536     -1.0746
  1/2[<0|del|b>*<b|r|0> + (<0|r|b>*<b|del|0>)*] (Au)
       state          X           Y           Z        Dip. S.   Osc.(frdel)
         1        -0.8548     -0.0077     -0.0046      0.8670      0.5780
         2        -0.1058     -0.0001      0.0000      0.1059      0.0706
         3        -0.0001     -0.0428     -0.0004      0.0433      0.0288

 Excitation energies and oscillator strengths:
 
 Excited State   1:      Singlet-A      2.9579 eV  419.16 nm  f=0.5527  <S**2>=0.000
      90 -> 92        -0.56217
      91 -> 92         0.42097
 
 Excited State   2:      Singlet-A      3.3149 eV  374.02 nm  f=0.0655  <S**2>=0.000
      90 -> 92         0.42107
      91 -> 92         0.56258
 This state for optimization and/or second-order correction.
 Total Energy, E(TD-HF/TD-DFT) =  -1090.55730671    
 Copying the excited state density for this state as the 1-particle RhoCI density.
 
 Excited State   3:      Singlet-A      4.2032 eV  294.98 nm  f=0.0292  <S**2>=0.000
      88 -> 92         0.39471
      89 -> 92         0.42712
      90 -> 93        -0.33259
      90 -> 94        -0.10966
      91 -> 93         0.10590
 SavETr:  write IOETrn=   770 NScale= 10 NData=  16 NLR=1 NState=    3 LETran=      64.
 NEqPCM:  Using equilibrium solvation (IEInf=0, Eps=  24.8520, EpsInf=   1.8526)
          Differentiating once with respect to electric field.
                with respect to dipole field.
          Electric field/nuclear overlap derivatives assumed to be zero.
          There are     1 degrees of freedom in the 1st order CPHF.  IDoFFX=0 NUNeed=     1.
 LinEq1:  Iter=  0 NonCon=     1 RMS=4.85D-03 Max=1.40D-01 NDo=     1
 AX will form     1 AO Fock derivatives at one time.
 LinEq1:  Iter=  1 NonCon=     1 RMS=1.61D-03 Max=8.54D-02 NDo=     1
 LinEq1:  Iter=  2 NonCon=     1 RMS=8.04D-04 Max=8.81D-02 NDo=     1
 LinEq1:  Iter=  3 NonCon=     1 RMS=2.60D-04 Max=1.76D-02 NDo=     1
 LinEq1:  Iter=  4 NonCon=     1 RMS=1.56D-04 Max=1.26D-02 NDo=     1
 LinEq1:  Iter=  5 NonCon=     1 RMS=6.64D-05 Max=3.96D-03 NDo=     1
 LinEq1:  Iter=  6 NonCon=     1 RMS=3.88D-05 Max=1.79D-03 NDo=     1
 LinEq1:  Iter=  7 NonCon=     1 RMS=1.71D-05 Max=6.03D-04 NDo=     1
 LinEq1:  Iter=  8 NonCon=     1 RMS=1.03D-05 Max=4.84D-04 NDo=     1
 LinEq1:  Iter=  9 NonCon=     1 RMS=5.12D-06 Max=2.50D-04 NDo=     1
 LinEq1:  Iter= 10 NonCon=     1 RMS=2.11D-06 Max=8.23D-05 NDo=     1
 LinEq1:  Iter= 11 NonCon=     1 RMS=7.36D-07 Max=2.84D-05 NDo=     1
 LinEq1:  Iter= 12 NonCon=     1 RMS=4.21D-07 Max=1.53D-05 NDo=     1
 LinEq1:  Iter= 13 NonCon=     1 RMS=1.42D-07 Max=6.34D-06 NDo=     1
 LinEq1:  Iter= 14 NonCon=     1 RMS=6.85D-08 Max=3.70D-06 NDo=     1
 LinEq1:  Iter= 15 NonCon=     1 RMS=3.32D-08 Max=1.45D-06 NDo=     1
 LinEq1:  Iter= 16 NonCon=     1 RMS=1.70D-08 Max=7.20D-07 NDo=     1
 LinEq1:  Iter= 17 NonCon=     1 RMS=8.22D-09 Max=4.05D-07 NDo=     1
 LinEq1:  Iter= 18 NonCon=     1 RMS=3.58D-09 Max=1.54D-07 NDo=     1
 LinEq1:  Iter= 19 NonCon=     1 RMS=2.04D-09 Max=9.45D-08 NDo=     1
 LinEq1:  Iter= 20 NonCon=     1 RMS=7.13D-10 Max=2.46D-08 NDo=     1
 LinEq1:  Iter= 21 NonCon=     1 RMS=4.08D-10 Max=2.42D-08 NDo=     1
 LinEq1:  Iter= 22 NonCon=     1 RMS=1.30D-10 Max=4.67D-09 NDo=     1
 LinEq1:  Iter= 23 NonCon=     1 RMS=6.68D-11 Max=3.80D-09 NDo=     1
 LinEq1:  Iter= 24 NonCon=     0 RMS=2.64D-11 Max=7.20D-10 NDo=     1
 Linear equations converged to 1.000D-10 1.000D-09 after    24 iterations.
 PCM Corrected Linear-Response - Equilibrium solvation:
 Corrected transition energy               =    2.0957          eV
 Total energy after correction             = -1090.60211228     a.u.
 NEqPCM:  Using non-equilibrium solvation (IEInf=1, Eps=  24.8520, EpsInf=   1.8526)
 Inv3:  Mode=1 IEnd=    37002432.
 Iteration    1 A*A^-1 deviation from unit magnitude is 8.22D-15 for   3504.
 Iteration    1 A*A^-1 deviation from orthogonality  is 2.44D-15 for   2870    786.
 Iteration    1 A^-1*A deviation from unit magnitude is 8.44D-15 for   3504.
 Iteration    1 A^-1*A deviation from orthogonality  is 1.81D-13 for   2631   2577.
 End of Minotr F.D. properties file   721 does not exist.
 End of Minotr F.D. properties file   722 does not exist.
 End of Minotr F.D. properties file   788 does not exist.

 **********************************************************************

            Population analysis using the CI Density.

 **********************************************************************

 Orbital symmetries:
       Occupied  (A) (A) (A) (A) (A) (A) (A) (A) (A) (A) (A) (A)
                 (A) (A) (A) (A) (A) (A) (A) (A) (A) (A) (A) (A)
                 (A) (A) (A) (A) (A) (A) (A) (A) (A) (A) (A) (A)
                 (A) (A) (A) (A) (A) (A) (A) (A) (A) (A) (A) (A)
                 (A) (A) (A) (A) (A) (A) (A) (A) (A) (A) (A) (A)
                 (A) (A) (A) (A) (A) (A) (A) (A) (A) (A) (A) (A)
                 (A) (A) (A) (A) (A) (A) (A) (A) (A) (A) (A) (A)
                 (A) (A) (A) (A) (A) (A) (A)
       Virtual   (A) (A) (A) (A) (A) (A) (A) (A) (A) (A) (A) (A)
                 (A) (A) (A) (A) (A) (A) (A) (A) (A) (A) (A) (A)
                 (A) (A) (A) (A) (A) (A) (A) (A) (A) (A) (A) (A)
                 (A) (A) (A) (A) (A) (A) (A) (A) (A) (A) (A) (A)
                 (A) (A) (A) (A) (A) (A) (A) (A) (A) (A) (A) (A)
                 (A) (A) (A) (A) (A) (A) (A) (A) (A) (A) (A) (A)
                 (A) (A) (A) (A) (A) (A) (A) (A) (A) (A) (A) (A)
                 (A) (A) (A) (A) (A) (A) (A) (A) (A) (A) (A) (A)
                 (A) (A) (A) (A) (A) (A) (A) (A) (A) (A) (A) (A)
                 (A) (A) (A) (A) (A) (A) (A) (A) (A) (A) (A) (A)
                 (A) (A) (A) (A) (A) (A) (A) (A) (A) (A) (A) (A)
                 (A) (A) (A) (A) (A) (A) (A) (A) (A) (A) (A) (A)
                 (A) (A) (A) (A) (A) (A) (A) (A) (A) (A) (A) (A)
                 (A) (A) (A) (A) (A) (A) (A) (A) (A) (A) (A) (A)
                 (A) (A) (A) (A) (A) (A) (A) (A) (A) (A) (A) (A)
                 (A) (A) (A) (A) (A) (A) (A) (A) (A) (A) (A) (A)
                 (A) (A) (A) (A) (A) (A) (A) (A) (A) (A) (A) (A)
                 (A) (A) (A) (A) (A) (A) (A) (A) (A) (A) (A) (A)
                 (A) (A) (A) (A) (A) (A) (A) (A) (A) (A) (A) (A)
                 (A) (A) (A) (A) (A) (A) (A) (A) (A) (A) (A) (A)
                 (A) (A) (A) (A) (A) (A) (A) (A) (A) (A) (A) (A)
                 (A) (A) (A) (A) (A) (A) (A) (A) (A) (A) (A) (A)
                 (A) (A) (A) (A) (A) (A) (A) (A) (A) (A) (A) (A)
                 (A) (A) (A) (A) (A) (A) (A) (A) (A) (A) (A) (A)
                 (A) (A) (A) (A) (A) (A) (A) (A) (A) (A) (A) (A)
                 (A) (A) (A) (A) (A) (A) (A) (A) (A) (A) (A) (A)
                 (A) (A) (A) (A) (A) (A) (A) (A) (A) (A) (A) (A)
                 (A) (A) (A) (A) (A) (A) (A) (A) (A) (A) (A) (A)
                 (A) (A) (A) (A) (A) (A) (A) (A) (A) (A) (A) (A)
                 (A) (A) (A) (A) (A) (A) (A) (A) (A) (A) (A) (A)
                 (A) (A) (A) (A) (A) (A) (A) (A) (A) (A) (A) (A)
                 (A) (A) (A) (A) (A) (A) (A) (A) (A) (A) (A) (A)
 The electronic state is 1-A.
 Alpha  occ. eigenvalues --  -19.62156 -19.61537 -14.81283 -14.78221 -14.72221
 Alpha  occ. eigenvalues --  -10.68244 -10.67606 -10.62567 -10.59126 -10.58534
 Alpha  occ. eigenvalues --  -10.58406 -10.58269 -10.58168 -10.58087 -10.58083
 Alpha  occ. eigenvalues --  -10.57609 -10.57106 -10.56970 -10.56716 -10.56203
 Alpha  occ. eigenvalues --  -10.56198 -10.56149 -10.54312 -10.54012 -10.53498
 Alpha  occ. eigenvalues --   -1.16329  -1.14042  -1.04577  -1.03509  -1.00061
 Alpha  occ. eigenvalues --   -0.97831  -0.92674  -0.89681  -0.87079  -0.84806
 Alpha  occ. eigenvalues --   -0.83794  -0.81855  -0.80475  -0.78418  -0.75672
 Alpha  occ. eigenvalues --   -0.74240  -0.72930  -0.71007  -0.69739  -0.68740
 Alpha  occ. eigenvalues --   -0.65098  -0.64088  -0.63316  -0.60564  -0.59215
 Alpha  occ. eigenvalues --   -0.58530  -0.57075  -0.55933  -0.55260  -0.54401
 Alpha  occ. eigenvalues --   -0.53895  -0.53162  -0.52046  -0.51660  -0.51087
 Alpha  occ. eigenvalues --   -0.50904  -0.50260  -0.50096  -0.48811  -0.48199
 Alpha  occ. eigenvalues --   -0.47536  -0.47391  -0.46788  -0.46334  -0.45743
 Alpha  occ. eigenvalues --   -0.44563  -0.44498  -0.43796  -0.42954  -0.42699
 Alpha  occ. eigenvalues --   -0.42127  -0.41766  -0.41138  -0.40287  -0.40088
 Alpha  occ. eigenvalues --   -0.39993  -0.38031  -0.37981  -0.37295  -0.35689
 Alpha  occ. eigenvalues --   -0.34498  -0.33197  -0.31788  -0.31585  -0.25750
 Alpha  occ. eigenvalues --   -0.23294
 Alpha virt. eigenvalues --   -0.06670   0.00339   0.00742   0.04691   0.08757
 Alpha virt. eigenvalues --    0.10771   0.11303   0.12474   0.13004   0.13362
 Alpha virt. eigenvalues --    0.13976   0.14168   0.14494   0.14888   0.15141
 Alpha virt. eigenvalues --    0.15219   0.16086   0.16906   0.17983   0.18135
 Alpha virt. eigenvalues --    0.18352   0.18694   0.18779   0.19477   0.19751
 Alpha virt. eigenvalues --    0.20194   0.20434   0.20502   0.21470   0.22213
 Alpha virt. eigenvalues --    0.22708   0.23854   0.24165   0.24588   0.25512
 Alpha virt. eigenvalues --    0.26032   0.26385   0.26938   0.27462   0.28072
 Alpha virt. eigenvalues --    0.28729   0.29384   0.30022   0.30483   0.31004
 Alpha virt. eigenvalues --    0.31044   0.31822   0.32161   0.32780   0.33925
 Alpha virt. eigenvalues --    0.34679   0.35233   0.37295   0.38089   0.38885
 Alpha virt. eigenvalues --    0.39500   0.40597   0.43142   0.45034   0.45992
 Alpha virt. eigenvalues --    0.46244   0.46908   0.47900   0.48196   0.48665
 Alpha virt. eigenvalues --    0.48861   0.49078   0.49409   0.50144   0.50292
 Alpha virt. eigenvalues --    0.50765   0.51071   0.51523   0.51981   0.52619
 Alpha virt. eigenvalues --    0.53442   0.54286   0.55199   0.55909   0.57214
 Alpha virt. eigenvalues --    0.57919   0.58233   0.59196   0.60114   0.60603
 Alpha virt. eigenvalues --    0.61055   0.63514   0.64475   0.64822   0.65239
 Alpha virt. eigenvalues --    0.65906   0.66114   0.66894   0.67275   0.68522
 Alpha virt. eigenvalues --    0.68901   0.69131   0.69423   0.69708   0.70071
 Alpha virt. eigenvalues --    0.70410   0.70798   0.71226   0.71561   0.71922
 Alpha virt. eigenvalues --    0.72073   0.72160   0.72445   0.72688   0.73117
 Alpha virt. eigenvalues --    0.73807   0.73964   0.74339   0.74542   0.74732
 Alpha virt. eigenvalues --    0.74845   0.74961   0.75440   0.75610   0.75777
 Alpha virt. eigenvalues --    0.76091   0.76652   0.76845   0.76895   0.77059
 Alpha virt. eigenvalues --    0.78112   0.78337   0.79108   0.79675   0.79989
 Alpha virt. eigenvalues --    0.80835   0.81330   0.82425   0.83116   0.83760
 Alpha virt. eigenvalues --    0.84427   0.84852   0.86027   0.87703   0.88181
 Alpha virt. eigenvalues --    0.89145   0.89421   0.90431   0.92205   0.93781
 Alpha virt. eigenvalues --    0.94059   0.94879   0.96212   0.97759   0.99891
 Alpha virt. eigenvalues --    1.02426   1.02656   1.04392   1.05352   1.07188
 Alpha virt. eigenvalues --    1.07721   1.09445   1.11905   1.13134   1.14003
 Alpha virt. eigenvalues --    1.14319   1.15007   1.15820   1.16390   1.18953
 Alpha virt. eigenvalues --    1.19350   1.21754   1.22054   1.22826   1.24035
 Alpha virt. eigenvalues --    1.24327   1.25039   1.26132   1.26333   1.27264
 Alpha virt. eigenvalues --    1.28567   1.28830   1.29367   1.30159   1.30975
 Alpha virt. eigenvalues --    1.32382   1.33137   1.33680   1.35662   1.37106
 Alpha virt. eigenvalues --    1.37591   1.38204   1.39694   1.40265   1.41556
 Alpha virt. eigenvalues --    1.42544   1.43792   1.44872   1.47105   1.47920
 Alpha virt. eigenvalues --    1.48786   1.51157   1.52389   1.53555   1.54061
 Alpha virt. eigenvalues --    1.55179   1.55368   1.56114   1.57589   1.58466
 Alpha virt. eigenvalues --    1.58722   1.59165   1.59902   1.61226   1.64256
 Alpha virt. eigenvalues --    1.65675   1.69467   1.70698   1.72276   1.73134
 Alpha virt. eigenvalues --    1.73938   1.74471   1.74925   1.75061   1.75959
 Alpha virt. eigenvalues --    1.77140   1.77731   1.78327   1.78769   1.79699
 Alpha virt. eigenvalues --    1.79884   1.80416   1.80990   1.81021   1.81414
 Alpha virt. eigenvalues --    1.82171   1.82806   1.83395   1.83644   1.84140
 Alpha virt. eigenvalues --    1.84686   1.84871   1.85171   1.85525   1.86644
 Alpha virt. eigenvalues --    1.86972   1.87606   1.88481   1.89010   1.90134
 Alpha virt. eigenvalues --    1.90283   1.90644   1.91776   1.92038   1.92400
 Alpha virt. eigenvalues --    1.93148   1.93373   1.93632   1.94369   1.95166
 Alpha virt. eigenvalues --    1.95650   1.96428   1.97496   1.97982   1.98359
 Alpha virt. eigenvalues --    1.98758   1.99692   2.00408   2.00615   2.01647
 Alpha virt. eigenvalues --    2.01815   2.03614   2.04408   2.05432   2.06089
 Alpha virt. eigenvalues --    2.06736   2.07663   2.08213   2.08774   2.09514
 Alpha virt. eigenvalues --    2.10448   2.11418   2.12580   2.13254   2.15419
 Alpha virt. eigenvalues --    2.15830   2.16404   2.17341   2.17803   2.18535
 Alpha virt. eigenvalues --    2.19293   2.20496   2.21978   2.23302   2.24496
 Alpha virt. eigenvalues --    2.25520   2.25911   2.27220   2.28005   2.28711
 Alpha virt. eigenvalues --    2.30895   2.32323   2.32821   2.33259   2.35969
 Alpha virt. eigenvalues --    2.36641   2.37302   2.39091   2.39682   2.40504
 Alpha virt. eigenvalues --    2.41704   2.43325   2.44526   2.45910   2.45957
 Alpha virt. eigenvalues --    2.46955   2.47544   2.47921   2.49350   2.49823
 Alpha virt. eigenvalues --    2.52098   2.53223   2.53463   2.54727   2.55497
 Alpha virt. eigenvalues --    2.58425   2.58762   2.60437   2.61686   2.62440
 Alpha virt. eigenvalues --    2.62905   2.63332   2.65535   2.66490   2.67259
 Alpha virt. eigenvalues --    2.67845   2.68787   2.70084   2.71262   2.71949
 Alpha virt. eigenvalues --    2.73550   2.76035   2.76791   2.77344   2.77508
 Alpha virt. eigenvalues --    2.78274   2.81654   2.82500   2.84224   2.84351
 Alpha virt. eigenvalues --    2.85161   2.85720   2.86349   2.88808   2.89203
 Alpha virt. eigenvalues --    2.90790   2.91020   2.93241   2.93785   2.95320
 Alpha virt. eigenvalues --    2.96443   2.96727   2.96855   2.98773   2.99256
 Alpha virt. eigenvalues --    3.00477   3.01547   3.02892   3.03930   3.04783
 Alpha virt. eigenvalues --    3.05990   3.06421   3.09278   3.10505   3.11793
 Alpha virt. eigenvalues --    3.12372   3.15414   3.19212   3.19315   3.22466
 Alpha virt. eigenvalues --    3.24848   3.33854   3.39140   3.42642   3.48256
 Alpha virt. eigenvalues --    3.51815   3.63432   3.67525   3.71425
          Condensed to atoms (all electrons):
               1          2          3          4          5          6
     1  O    7.887241  -0.000082  -0.000031  -0.000022  -0.000000   0.000000
     2  C   -0.000082   5.467136   0.241284  -0.000098  -0.100989  -0.028426
     3  C   -0.000031   0.241284   5.384531   0.000001   0.423170  -0.009117
     4  O   -0.000022  -0.000098   0.000001   7.899107  -0.000000  -0.000000
     5  N   -0.000000  -0.100989   0.423170  -0.000000   6.500773   0.332564
     6  H    0.000000  -0.028426  -0.009117  -0.000000   0.332564   0.534709
     7  C   -0.151708  -0.009659  -0.164425   0.000390  -0.000412  -0.000172
     8  N   -0.114164  -0.001620  -0.000037  -0.111222  -0.000000  -0.000000
     9  C    0.000684   0.266030   0.017072   0.000859   0.005759   0.000093
    10  C    0.002021   0.037288   0.192756  -0.000000  -0.104855   0.009681
    11  H   -0.000024   0.015724  -0.084775   0.000000  -0.016431  -0.000134
    12  C    0.000334  -0.003348   0.026995  -0.148101  -0.000071   0.000062
    13  C    0.000008  -0.129713  -0.002721   0.018842  -0.000028  -0.000069
    14  H    0.000000  -0.001156   0.000044   0.014883   0.000000  -0.000000
    15  C   -0.000000   0.081598   0.018509   0.001812   0.000981  -0.000628
    16  H    0.000000   0.014813  -0.000384  -0.000015  -0.000002   0.000048
    17  C   -0.000603   0.015167   0.000248   0.720660   0.000001   0.000001
    18  C    0.000001   0.271706  -0.161367  -0.000042  -0.002298   0.012626
    19  H   -0.000000  -0.068081  -0.027687   0.000000   0.006045  -0.004465
    20  C    0.730338   0.012189  -0.001317  -0.000591   0.000013  -0.000000
    21  C    0.000000   0.010876  -0.054264   0.000000   0.304778  -0.019788
    22  H    0.000000  -0.000586  -0.016658   0.000000  -0.017274   0.007301
    23  H    0.000000  -0.000104   0.002162   0.000000  -0.034711  -0.008819
    24  C    0.004622   0.000093  -0.000000  -0.001206   0.000000  -0.000000
    25  H    0.014588   0.000002   0.000000   0.000564   0.000000  -0.000000
    26  H    0.000582   0.000003  -0.000000   0.021699  -0.000000   0.000000
    27  C    0.020787  -0.121661   0.121324   0.000009   0.008010   0.000265
    28  H    0.015032  -0.001293   0.015929   0.000000  -0.000097   0.000006
    29  C    0.000000  -0.000199   0.009283   0.000000  -0.044141  -0.016769
    30  C   -0.010997  -0.000005  -0.000000  -0.006553   0.000000   0.000000
    31  H    0.000055   0.000000   0.000000  -0.000071  -0.000000  -0.000000
    32  H    0.014098   0.000001   0.000000  -0.000068  -0.000000   0.000000
    33  C    0.000127   0.000002  -0.000000   0.002885  -0.000000   0.000000
    34  H   -0.000015   0.000000  -0.000000   0.005105   0.000000  -0.000000
    35  H    0.000010  -0.000003  -0.000000  -0.001940  -0.000000  -0.000000
    36  C   -0.000004   0.000000  -0.000000   0.000159   0.000000  -0.000000
    37  H   -0.000019  -0.000000  -0.000000  -0.000003   0.000000   0.000000
    38  H    0.000001   0.000000  -0.000000  -0.000003  -0.000000   0.000000
    39  H    0.000000  -0.000000   0.000000  -0.000004  -0.000000   0.000000
    40  H   -0.000000   0.000010  -0.000120   0.000000   0.004736  -0.000155
    41  N   -0.000000   0.000053  -0.000376  -0.000000  -0.001590   0.006923
    42  H   -0.000000  -0.000080   0.000524  -0.000000   0.004933  -0.002685
    43  C   -0.000000  -0.000001  -0.000033   0.000000  -0.000591  -0.000775
    44  H   -0.000000   0.000000   0.000027   0.000000   0.000010  -0.000215
    45  H    0.000000   0.000000   0.000003  -0.000000  -0.000007  -0.000060
    46  H   -0.000000  -0.000013  -0.000211   0.000000   0.000644   0.001782
    47  C    0.000000   0.000051  -0.000116  -0.000000  -0.001011   0.001205
    48  H   -0.000000  -0.000084   0.000115   0.000000   0.003110   0.000695
    49  H   -0.000000  -0.000002   0.000002   0.000000  -0.000027  -0.000083
    50  H    0.000000  -0.000001  -0.000001  -0.000000   0.000161  -0.000068
               7          8          9         10         11         12
     1  O   -0.151708  -0.114164   0.000684   0.002021  -0.000024   0.000334
     2  C   -0.009659  -0.001620   0.266030   0.037288   0.015724  -0.003348
     3  C   -0.164425  -0.000037   0.017072   0.192756  -0.084775   0.026995
     4  O    0.000390  -0.111222   0.000859  -0.000000   0.000000  -0.148101
     5  N   -0.000412  -0.000000   0.005759  -0.104855  -0.016431  -0.000071
     6  H   -0.000172  -0.000000   0.000093   0.009681  -0.000134   0.000062
     7  C    5.926436  -0.121602   0.300926   0.081634   0.016968  -0.093108
     8  N   -0.121602   7.106126  -0.022601   0.000037   0.000000  -0.119776
     9  C    0.300926  -0.022601   5.311295  -0.121582  -0.001755   0.309684
    10  C    0.081634   0.000037  -0.121582   5.339306   0.476172  -0.003155
    11  H    0.016968   0.000000  -0.001755   0.476172   0.649590   0.000028
    12  C   -0.093108  -0.119776   0.309684  -0.003155   0.000028   5.850634
    13  C    0.014421   0.011092   0.029614   0.000176   0.000000   0.201917
    14  H   -0.000424   0.001097   0.013594   0.000000   0.000000  -0.087008
    15  C   -0.003177   0.000007  -0.130215  -0.000535   0.000002   0.077941
    16  H    0.000047   0.000001  -0.000888   0.000004  -0.000000   0.014579
    17  C   -0.046794   0.292940  -0.072829  -0.000336   0.000001   0.246968
    18  C    0.023495  -0.000020   0.019041   0.017328  -0.000113  -0.141556
    19  H   -0.000068  -0.000000   0.014605  -0.000127   0.000010  -0.001544
    20  C    0.232168   0.301031  -0.072513   0.022127  -0.000466  -0.038829
    21  C    0.000046   0.000000  -0.000121   0.000607   0.008017   0.000006
    22  H   -0.000069   0.000000   0.000035   0.007310  -0.001638   0.000001
    23  H   -0.000019   0.000000  -0.000040   0.001479  -0.000438  -0.000001
    24  C    0.011193   0.230415  -0.000122   0.000000  -0.000000   0.008887
    25  H    0.003617  -0.027030  -0.000158  -0.000003   0.000000  -0.000460
    26  H   -0.000368  -0.029760  -0.000246   0.000000   0.000000   0.005128
    27  C    0.165124   0.011757   0.029497   0.218717  -0.075813   0.014785
    28  H   -0.094944   0.001147   0.013182  -0.067251  -0.012511  -0.000488
    29  C    0.000004   0.000000  -0.000001   0.000879   0.000556  -0.000000
    30  C   -0.001816  -0.035109   0.000195   0.000000  -0.000000  -0.001351
    31  H    0.000007   0.005417   0.000001   0.000000  -0.000000   0.000023
    32  H    0.000187  -0.011822  -0.000064  -0.000001   0.000000   0.000104
    33  C    0.000115  -0.007676  -0.000000  -0.000000   0.000000   0.000015
    34  H    0.000004  -0.001707  -0.000014   0.000000  -0.000000   0.000159
    35  H   -0.000168   0.005800   0.000158   0.000000  -0.000000   0.000221
    36  C   -0.000002  -0.000226  -0.000001   0.000000  -0.000000   0.000014
    37  H   -0.000000   0.000037   0.000000   0.000000   0.000000  -0.000001
    38  H   -0.000000  -0.000000   0.000000   0.000000   0.000000  -0.000000
    39  H    0.000000   0.000008  -0.000000  -0.000000   0.000000  -0.000000
    40  H   -0.000000   0.000000  -0.000000  -0.000032   0.000019   0.000000
    41  N   -0.000000  -0.000000   0.000000  -0.000009  -0.000009   0.000000
    42  H    0.000000  -0.000000  -0.000002  -0.000130   0.000011  -0.000000
    43  C   -0.000000  -0.000000  -0.000000  -0.000007  -0.000003  -0.000000
    44  H    0.000000  -0.000000   0.000000  -0.000002  -0.000003  -0.000000
    45  H   -0.000000   0.000000  -0.000000   0.000000   0.000000   0.000000
    46  H    0.000000  -0.000000  -0.000000  -0.000003   0.000000   0.000000
    47  C    0.000000   0.000000   0.000000  -0.000006  -0.000001  -0.000000
    48  H   -0.000000  -0.000000   0.000000  -0.000001  -0.000001   0.000000
    49  H   -0.000000  -0.000000  -0.000000   0.000000  -0.000000   0.000000
    50  H    0.000000   0.000000  -0.000000   0.000000   0.000000   0.000000
              13         14         15         16         17         18
     1  O    0.000008   0.000000  -0.000000   0.000000  -0.000603   0.000001
     2  C   -0.129713  -0.001156   0.081598   0.014813   0.015167   0.271706
     3  C   -0.002721   0.000044   0.018509  -0.000384   0.000248  -0.161367
     4  O    0.018842   0.014883   0.001812  -0.000015   0.720660  -0.000042
     5  N   -0.000028   0.000000   0.000981  -0.000002   0.000001  -0.002298
     6  H   -0.000069  -0.000000  -0.000628   0.000048   0.000001   0.012626
     7  C    0.014421  -0.000424  -0.003177   0.000047  -0.046794   0.023495
     8  N    0.011092   0.001097   0.000007   0.000001   0.292940  -0.000020
     9  C    0.029614   0.013594  -0.130215  -0.000888  -0.072829   0.019041
    10  C    0.000176   0.000000  -0.000535   0.000004  -0.000336   0.017328
    11  H    0.000000   0.000000   0.000002  -0.000000   0.000001  -0.000113
    12  C    0.201917  -0.087008   0.077941   0.014579   0.246968  -0.141556
    13  C    5.279754   0.468990   0.254894  -0.075977  -0.083232   0.080734
    14  H    0.468990   0.654450  -0.070711  -0.011358  -0.014329   0.014157
    15  C    0.254894  -0.070711   5.155823   0.458913   0.022996   0.230081
    16  H   -0.075977  -0.011358   0.458913   0.649769  -0.000448  -0.071041
    17  C   -0.083232  -0.014329   0.022996  -0.000448   4.762393  -0.002730
    18  C    0.080734   0.014157   0.230081  -0.071041  -0.002730   5.414094
    19  H    0.014216  -0.000227  -0.059717  -0.012361   0.000033   0.457084
    20  C    0.001318   0.000054  -0.000303   0.000001  -0.040269   0.000138
    21  C    0.000001   0.000000  -0.000027  -0.000000  -0.000000  -0.000113
    22  H   -0.000000   0.000000   0.000000   0.000000   0.000000  -0.000081
    23  H    0.000000   0.000000   0.000007  -0.000000  -0.000000   0.000113
    24  C   -0.000366  -0.000037   0.000002  -0.000000  -0.021640  -0.000000
    25  H    0.000006  -0.000001  -0.000000   0.000000   0.004523  -0.000000
    26  H   -0.000026  -0.000015  -0.000004  -0.000000  -0.008310   0.000001
    27  C   -0.000530   0.000002   0.000198  -0.000000   0.001288  -0.002889
    28  H    0.000002  -0.000000   0.000001   0.000000   0.000065   0.000029
    29  C    0.000000  -0.000000   0.000002  -0.000000   0.000000   0.000008
    30  C    0.000032   0.000008   0.000000   0.000000  -0.006408  -0.000000
    31  H   -0.000000   0.000000   0.000000  -0.000000   0.000212   0.000000
    32  H   -0.000000   0.000000  -0.000000  -0.000000  -0.000828  -0.000000
    33  C   -0.000042  -0.000014  -0.000000   0.000000   0.007143   0.000000
    34  H    0.000011  -0.000001  -0.000000  -0.000000   0.000054   0.000000
    35  H    0.000037   0.000027  -0.000001  -0.000000   0.004479   0.000000
    36  C    0.000000  -0.000000  -0.000000   0.000000  -0.000026   0.000000
    37  H    0.000000   0.000000   0.000000  -0.000000  -0.000011  -0.000000
    38  H   -0.000000   0.000000   0.000000  -0.000000   0.000007  -0.000000
    39  H   -0.000000  -0.000000   0.000000  -0.000000   0.000006  -0.000000
    40  H    0.000000   0.000000   0.000000  -0.000000  -0.000000   0.000000
    41  N    0.000000  -0.000000  -0.000001   0.000000  -0.000000  -0.000055
    42  H    0.000000  -0.000000   0.000002  -0.000000   0.000000   0.000047
    43  C    0.000000   0.000000   0.000000  -0.000000   0.000000   0.000000
    44  H    0.000000  -0.000000   0.000000  -0.000000  -0.000000  -0.000000
    45  H    0.000000  -0.000000   0.000000   0.000000  -0.000000  -0.000000
    46  H   -0.000000   0.000000  -0.000001   0.000000   0.000000   0.000041
    47  C    0.000000   0.000000  -0.000005  -0.000001  -0.000000  -0.000110
    48  H   -0.000000  -0.000000   0.000034   0.000002   0.000000  -0.000329
    49  H    0.000000   0.000000   0.000000  -0.000000   0.000000   0.000004
    50  H   -0.000000  -0.000000   0.000000   0.000000  -0.000000   0.000002
              19         20         21         22         23         24
     1  O   -0.000000   0.730338   0.000000   0.000000   0.000000   0.004622
     2  C   -0.068081   0.012189   0.010876  -0.000586  -0.000104   0.000093
     3  C   -0.027687  -0.001317  -0.054264  -0.016658   0.002162  -0.000000
     4  O    0.000000  -0.000591   0.000000   0.000000   0.000000  -0.001206
     5  N    0.006045   0.000013   0.304778  -0.017274  -0.034711   0.000000
     6  H   -0.004465  -0.000000  -0.019788   0.007301  -0.008819  -0.000000
     7  C   -0.000068   0.232168   0.000046  -0.000069  -0.000019   0.011193
     8  N   -0.000000   0.301031   0.000000   0.000000   0.000000   0.230415
     9  C    0.014605  -0.072513  -0.000121   0.000035  -0.000040  -0.000122
    10  C   -0.000127   0.022127   0.000607   0.007310   0.001479   0.000000
    11  H    0.000010  -0.000466   0.008017  -0.001638  -0.000438  -0.000000
    12  C   -0.001544  -0.038829   0.000006   0.000001  -0.000001   0.008887
    13  C    0.014216   0.001318   0.000001  -0.000000   0.000000  -0.000366
    14  H   -0.000227   0.000054   0.000000   0.000000   0.000000  -0.000037
    15  C   -0.059717  -0.000303  -0.000027   0.000000   0.000007   0.000002
    16  H   -0.012361   0.000001  -0.000000   0.000000  -0.000000  -0.000000
    17  C    0.000033  -0.040269  -0.000000   0.000000  -0.000000  -0.021640
    18  C    0.457084   0.000138  -0.000113  -0.000081   0.000113  -0.000000
    19  H    0.660728   0.000002  -0.000335  -0.000105   0.000189   0.000000
    20  C    0.000002   4.749544  -0.000000   0.000001   0.000000  -0.024399
    21  C   -0.000335  -0.000000   4.655171   0.396066   0.369118  -0.000000
    22  H   -0.000105   0.000001   0.396066   0.577514  -0.029456  -0.000000
    23  H    0.000189   0.000000   0.369118  -0.029456   0.634249   0.000000
    24  C    0.000000  -0.024399  -0.000000  -0.000000   0.000000   4.596897
    25  H    0.000000  -0.007070  -0.000000  -0.000000   0.000000   0.369508
    26  H   -0.000000   0.005588  -0.000000   0.000000  -0.000000   0.374534
    27  C   -0.000104  -0.077072   0.000217   0.001373  -0.000292  -0.000453
    28  H    0.000000  -0.012872  -0.000025   0.000027   0.000016  -0.000053
    29  C    0.000272   0.000000   0.395698  -0.019465  -0.010139  -0.000000
    30  C   -0.000000  -0.007332   0.000000   0.000000  -0.000000   0.402892
    31  H    0.000000  -0.000005  -0.000000  -0.000000   0.000000  -0.025334
    32  H    0.000000   0.005146   0.000000  -0.000000   0.000000  -0.012710
    33  C    0.000000  -0.000028  -0.000000  -0.000000   0.000000  -0.046979
    34  H    0.000000   0.000000  -0.000000  -0.000000   0.000000   0.001149
    35  H    0.000000   0.000372  -0.000000  -0.000000   0.000000  -0.013566
    36  C    0.000000  -0.000040  -0.000000  -0.000000   0.000000   0.009549
    37  H   -0.000000  -0.000010   0.000000   0.000000  -0.000000   0.000316
    38  H    0.000000   0.000001  -0.000000   0.000000  -0.000000   0.000125
    39  H    0.000000   0.000001  -0.000000  -0.000000   0.000000  -0.000440
    40  H    0.000003  -0.000000  -0.020140  -0.005023  -0.001876  -0.000000
    41  N   -0.000118   0.000000  -0.061001   0.005166  -0.007890  -0.000000
    42  H    0.000177   0.000000  -0.025332  -0.008440   0.007487   0.000000
    43  C    0.000019   0.000000  -0.002162  -0.000090   0.006153   0.000000
    44  H    0.000002   0.000000  -0.006071  -0.000128   0.003851  -0.000000
    45  H    0.000000   0.000000  -0.000286  -0.000005   0.000165  -0.000000
    46  H   -0.000040  -0.000000   0.004596   0.000065  -0.003043   0.000000
    47  C    0.000230  -0.000000  -0.001161  -0.000083  -0.000174  -0.000000
    48  H    0.001120  -0.000000  -0.001415  -0.000110   0.000214   0.000000
    49  H    0.000001   0.000000  -0.000208   0.000009   0.000033   0.000000
    50  H   -0.000010   0.000000  -0.000034  -0.000004   0.000003  -0.000000
              25         26         27         28         29         30
     1  O    0.014588   0.000582   0.020787   0.015032   0.000000  -0.010997
     2  C    0.000002   0.000003  -0.121661  -0.001293  -0.000199  -0.000005
     3  C    0.000000  -0.000000   0.121324   0.015929   0.009283  -0.000000
     4  O    0.000564   0.021699   0.000009   0.000000   0.000000  -0.006553
     5  N    0.000000  -0.000000   0.008010  -0.000097  -0.044141   0.000000
     6  H   -0.000000   0.000000   0.000265   0.000006  -0.016769   0.000000
     7  C    0.003617  -0.000368   0.165124  -0.094944   0.000004  -0.001816
     8  N   -0.027030  -0.029760   0.011757   0.001147   0.000000  -0.035109
     9  C   -0.000158  -0.000246   0.029497   0.013182  -0.000001   0.000195
    10  C   -0.000003   0.000000   0.218717  -0.067251   0.000879   0.000000
    11  H    0.000000   0.000000  -0.075813  -0.012511   0.000556  -0.000000
    12  C   -0.000460   0.005128   0.014785  -0.000488  -0.000000  -0.001351
    13  C    0.000006  -0.000026  -0.000530   0.000002   0.000000   0.000032
    14  H   -0.000001  -0.000015   0.000002  -0.000000  -0.000000   0.000008
    15  C   -0.000000  -0.000004   0.000198   0.000001   0.000002   0.000000
    16  H    0.000000  -0.000000  -0.000000   0.000000  -0.000000   0.000000
    17  C    0.004523  -0.008310   0.001288   0.000065   0.000000  -0.006408
    18  C   -0.000000   0.000001  -0.002889   0.000029   0.000008  -0.000000
    19  H    0.000000  -0.000000  -0.000104   0.000000   0.000272  -0.000000
    20  C   -0.007070   0.005588  -0.077072  -0.012872   0.000000  -0.007332
    21  C   -0.000000  -0.000000   0.000217  -0.000025   0.395698   0.000000
    22  H   -0.000000   0.000000   0.001373   0.000027  -0.019465   0.000000
    23  H    0.000000  -0.000000  -0.000292   0.000016  -0.010139  -0.000000
    24  C    0.369508   0.374534  -0.000453  -0.000053  -0.000000   0.402892
    25  H    0.639708  -0.021468  -0.000006  -0.000006  -0.000000  -0.016338
    26  H   -0.021468   0.628782   0.000006  -0.000001   0.000000  -0.019031
    27  C   -0.000006   0.000006   5.303963   0.471796  -0.000043   0.000037
    28  H   -0.000006  -0.000001   0.471796   0.650921  -0.000000   0.000012
    29  C   -0.000000   0.000000  -0.000043  -0.000000   4.565054  -0.000000
    30  C   -0.016338  -0.019031   0.000037   0.000012  -0.000000   4.762289
    31  H   -0.003483  -0.004553  -0.000001  -0.000000   0.000000   0.382953
    32  H   -0.010219   0.007332   0.000005  -0.000021  -0.000000   0.371222
    33  C    0.008412  -0.010754  -0.000002   0.000000  -0.000000   0.385410
    34  H   -0.000122   0.005559  -0.000000   0.000000   0.000000  -0.033737
    35  H    0.000062  -0.000806  -0.000009  -0.000000   0.000000  -0.017498
    36  C   -0.000362   0.000287   0.000000   0.000000   0.000000  -0.058907
    37  H    0.000004   0.000015  -0.000000   0.000000  -0.000000  -0.006570
    38  H   -0.000011  -0.000041  -0.000000  -0.000000  -0.000000  -0.006609
    39  H    0.000012   0.000000   0.000000   0.000000   0.000000   0.007306
    40  H   -0.000000   0.000000  -0.000001   0.000000   0.390810  -0.000000
    41  N   -0.000000   0.000000   0.000000   0.000000   0.297975   0.000000
    42  H    0.000000  -0.000000  -0.000003   0.000000   0.400011  -0.000000
    43  C    0.000000  -0.000000   0.000000  -0.000000  -0.035183   0.000000
    44  H    0.000000  -0.000000  -0.000000   0.000000   0.005327  -0.000000
    45  H   -0.000000   0.000000  -0.000000   0.000000   0.003481  -0.000000
    46  H    0.000000  -0.000000   0.000001  -0.000000  -0.004568   0.000000
    47  C   -0.000000   0.000000   0.000000  -0.000000  -0.025137   0.000000
    48  H    0.000000  -0.000000  -0.000000   0.000000   0.002654  -0.000000
    49  H    0.000000  -0.000000   0.000000   0.000000   0.004144  -0.000000
    50  H   -0.000000   0.000000   0.000000   0.000000  -0.005002   0.000000
              31         32         33         34         35         36
     1  O    0.000055   0.014098   0.000127  -0.000015   0.000010  -0.000004
     2  C    0.000000   0.000001   0.000002   0.000000  -0.000003   0.000000
     3  C    0.000000   0.000000  -0.000000  -0.000000  -0.000000  -0.000000
     4  O   -0.000071  -0.000068   0.002885   0.005105  -0.001940   0.000159
     5  N   -0.000000  -0.000000  -0.000000   0.000000  -0.000000   0.000000
     6  H   -0.000000   0.000000   0.000000  -0.000000  -0.000000  -0.000000
     7  C    0.000007   0.000187   0.000115   0.000004  -0.000168  -0.000002
     8  N    0.005417  -0.011822  -0.007676  -0.001707   0.005800  -0.000226
     9  C    0.000001  -0.000064  -0.000000  -0.000014   0.000158  -0.000001
    10  C    0.000000  -0.000001  -0.000000   0.000000   0.000000   0.000000
    11  H   -0.000000   0.000000   0.000000  -0.000000  -0.000000  -0.000000
    12  C    0.000023   0.000104   0.000015   0.000159   0.000221   0.000014
    13  C   -0.000000  -0.000000  -0.000042   0.000011   0.000037   0.000000
    14  H    0.000000   0.000000  -0.000014  -0.000001   0.000027  -0.000000
    15  C    0.000000  -0.000000  -0.000000  -0.000000  -0.000001  -0.000000
    16  H   -0.000000  -0.000000   0.000000  -0.000000  -0.000000   0.000000
    17  C    0.000212  -0.000828   0.007143   0.000054   0.004479  -0.000026
    18  C    0.000000  -0.000000   0.000000   0.000000   0.000000   0.000000
    19  H    0.000000   0.000000   0.000000   0.000000   0.000000   0.000000
    20  C   -0.000005   0.005146  -0.000028   0.000000   0.000372  -0.000040
    21  C   -0.000000   0.000000  -0.000000  -0.000000  -0.000000  -0.000000
    22  H   -0.000000  -0.000000  -0.000000  -0.000000  -0.000000  -0.000000
    23  H    0.000000   0.000000   0.000000   0.000000   0.000000   0.000000
    24  C   -0.025334  -0.012710  -0.046979   0.001149  -0.013566   0.009549
    25  H   -0.003483  -0.010219   0.008412  -0.000122   0.000062  -0.000362
    26  H   -0.004553   0.007332  -0.010754   0.005559  -0.000806   0.000287
    27  C   -0.000001   0.000005  -0.000002  -0.000000  -0.000009   0.000000
    28  H   -0.000000  -0.000021   0.000000   0.000000  -0.000000   0.000000
    29  C    0.000000  -0.000000  -0.000000   0.000000   0.000000   0.000000
    30  C    0.382953   0.371222   0.385410  -0.033737  -0.017498  -0.058907
    31  H    0.650351  -0.025016  -0.027524  -0.009266   0.008532  -0.004448
    32  H   -0.025016   0.666236  -0.035597   0.008225  -0.009257  -0.003964
    33  C   -0.027524  -0.035597   4.731917   0.382510   0.376641   0.412453
    34  H   -0.009266   0.008225   0.382510   0.671530  -0.032238  -0.024263
    35  H    0.008532  -0.009257   0.376641  -0.032238   0.667252  -0.024866
    36  C   -0.004448  -0.003964   0.412453  -0.024263  -0.024866   4.602495
    37  H   -0.001515   0.006410  -0.023153   0.007676  -0.008574   0.393969
    38  H    0.006814  -0.001448  -0.025855  -0.008568   0.007729   0.397798
    39  H   -0.000040  -0.000112  -0.016440  -0.005767  -0.005784   0.388188
    40  H    0.000000   0.000000  -0.000000  -0.000000   0.000000  -0.000000
    41  N    0.000000   0.000000   0.000000  -0.000000   0.000000  -0.000000
    42  H    0.000000  -0.000000  -0.000000   0.000000   0.000000   0.000000
    43  C   -0.000000  -0.000000  -0.000000   0.000000   0.000000   0.000000
    44  H    0.000000  -0.000000  -0.000000   0.000000   0.000000   0.000000
    45  H    0.000000   0.000000   0.000000  -0.000000   0.000000  -0.000000
    46  H   -0.000000  -0.000000   0.000000   0.000000  -0.000000   0.000000
    47  C   -0.000000   0.000000   0.000000  -0.000000  -0.000000  -0.000000
    48  H    0.000000  -0.000000  -0.000000   0.000000   0.000000   0.000000
    49  H    0.000000  -0.000000  -0.000000   0.000000   0.000000   0.000000
    50  H    0.000000   0.000000   0.000000  -0.000000   0.000000  -0.000000
              37         38         39         40         41         42
     1  O   -0.000019   0.000001   0.000000  -0.000000  -0.000000  -0.000000
     2  C   -0.000000   0.000000  -0.000000   0.000010   0.000053  -0.000080
     3  C   -0.000000  -0.000000   0.000000  -0.000120  -0.000376   0.000524
     4  O   -0.000003  -0.000003  -0.000004   0.000000  -0.000000  -0.000000
     5  N    0.000000  -0.000000  -0.000000   0.004736  -0.001590   0.004933
     6  H    0.000000   0.000000   0.000000  -0.000155   0.006923  -0.002685
     7  C   -0.000000  -0.000000   0.000000  -0.000000  -0.000000   0.000000
     8  N    0.000037  -0.000000   0.000008   0.000000  -0.000000  -0.000000
     9  C    0.000000   0.000000  -0.000000  -0.000000   0.000000  -0.000002
    10  C    0.000000   0.000000  -0.000000  -0.000032  -0.000009  -0.000130
    11  H    0.000000   0.000000   0.000000   0.000019  -0.000009   0.000011
    12  C   -0.000001  -0.000000  -0.000000   0.000000   0.000000  -0.000000
    13  C    0.000000  -0.000000  -0.000000   0.000000   0.000000   0.000000
    14  H    0.000000   0.000000  -0.000000   0.000000  -0.000000  -0.000000
    15  C    0.000000   0.000000   0.000000   0.000000  -0.000001   0.000002
    16  H   -0.000000  -0.000000  -0.000000  -0.000000   0.000000  -0.000000
    17  C   -0.000011   0.000007   0.000006  -0.000000  -0.000000   0.000000
    18  C   -0.000000  -0.000000  -0.000000   0.000000  -0.000055   0.000047
    19  H   -0.000000   0.000000   0.000000   0.000003  -0.000118   0.000177
    20  C   -0.000010   0.000001   0.000001  -0.000000   0.000000   0.000000
    21  C    0.000000  -0.000000  -0.000000  -0.020140  -0.061001  -0.025332
    22  H    0.000000   0.000000  -0.000000  -0.005023   0.005166  -0.008440
    23  H   -0.000000  -0.000000   0.000000  -0.001876  -0.007890   0.007487
    24  C    0.000316   0.000125  -0.000440  -0.000000  -0.000000   0.000000
    25  H    0.000004  -0.000011   0.000012  -0.000000  -0.000000   0.000000
    26  H    0.000015  -0.000041   0.000000   0.000000   0.000000  -0.000000
    27  C   -0.000000  -0.000000   0.000000  -0.000001   0.000000  -0.000003
    28  H    0.000000  -0.000000   0.000000   0.000000   0.000000   0.000000
    29  C   -0.000000  -0.000000   0.000000   0.390810   0.297975   0.400011
    30  C   -0.006570  -0.006609   0.007306  -0.000000   0.000000  -0.000000
    31  H   -0.001515   0.006814  -0.000040   0.000000   0.000000   0.000000
    32  H    0.006410  -0.001448  -0.000112   0.000000   0.000000  -0.000000
    33  C   -0.023153  -0.025855  -0.016440  -0.000000   0.000000  -0.000000
    34  H    0.007676  -0.008568  -0.005767  -0.000000  -0.000000   0.000000
    35  H   -0.008574   0.007729  -0.005784   0.000000   0.000000   0.000000
    36  C    0.393969   0.397798   0.388188  -0.000000  -0.000000   0.000000
    37  H    0.635114  -0.025455  -0.022710  -0.000000  -0.000000  -0.000000
    38  H   -0.025455   0.633954  -0.023216   0.000000   0.000000   0.000000
    39  H   -0.022710  -0.023216   0.629519   0.000000   0.000000   0.000000
    40  H   -0.000000   0.000000   0.000000   0.552689  -0.023685  -0.011645
    41  N   -0.000000   0.000000   0.000000  -0.023685   6.681348  -0.030509
    42  H   -0.000000   0.000000   0.000000  -0.011645  -0.030509   0.562551
    43  C    0.000000  -0.000000  -0.000000  -0.005749   0.299888   0.004808
    44  H   -0.000000   0.000000   0.000000   0.001961  -0.022296   0.000372
    45  H   -0.000000   0.000000   0.000000   0.000572  -0.020449  -0.000135
    46  H    0.000000  -0.000000  -0.000000  -0.000250  -0.024788  -0.000422
    47  C    0.000000   0.000000  -0.000000   0.002218   0.297697  -0.000338
    48  H    0.000000  -0.000000  -0.000000   0.000060  -0.026789   0.000277
    49  H    0.000000  -0.000000  -0.000000  -0.000300  -0.019974   0.000397
    50  H   -0.000000   0.000000   0.000000   0.000727  -0.022077   0.001527
              43         44         45         46         47         48
     1  O   -0.000000  -0.000000   0.000000  -0.000000   0.000000  -0.000000
     2  C   -0.000001   0.000000   0.000000  -0.000013   0.000051  -0.000084
     3  C   -0.000033   0.000027   0.000003  -0.000211  -0.000116   0.000115
     4  O    0.000000   0.000000  -0.000000   0.000000  -0.000000   0.000000
     5  N   -0.000591   0.000010  -0.000007   0.000644  -0.001011   0.003110
     6  H   -0.000775  -0.000215  -0.000060   0.001782   0.001205   0.000695
     7  C   -0.000000   0.000000  -0.000000   0.000000   0.000000  -0.000000
     8  N   -0.000000  -0.000000   0.000000  -0.000000   0.000000  -0.000000
     9  C   -0.000000   0.000000  -0.000000  -0.000000   0.000000   0.000000
    10  C   -0.000007  -0.000002   0.000000  -0.000003  -0.000006  -0.000001
    11  H   -0.000003  -0.000003   0.000000   0.000000  -0.000001  -0.000001
    12  C   -0.000000  -0.000000   0.000000   0.000000  -0.000000   0.000000
    13  C    0.000000   0.000000   0.000000  -0.000000   0.000000  -0.000000
    14  H    0.000000  -0.000000  -0.000000   0.000000   0.000000  -0.000000
    15  C    0.000000   0.000000   0.000000  -0.000001  -0.000005   0.000034
    16  H   -0.000000  -0.000000   0.000000   0.000000  -0.000001   0.000002
    17  C    0.000000  -0.000000  -0.000000   0.000000  -0.000000   0.000000
    18  C    0.000000  -0.000000  -0.000000   0.000041  -0.000110  -0.000329
    19  H    0.000019   0.000002   0.000000  -0.000040   0.000230   0.001120
    20  C    0.000000   0.000000   0.000000  -0.000000  -0.000000  -0.000000
    21  C   -0.002162  -0.006071  -0.000286   0.004596  -0.001161  -0.001415
    22  H   -0.000090  -0.000128  -0.000005   0.000065  -0.000083  -0.000110
    23  H    0.006153   0.003851   0.000165  -0.003043  -0.000174   0.000214
    24  C    0.000000  -0.000000  -0.000000   0.000000  -0.000000   0.000000
    25  H    0.000000   0.000000  -0.000000   0.000000  -0.000000   0.000000
    26  H   -0.000000  -0.000000   0.000000  -0.000000   0.000000  -0.000000
    27  C    0.000000  -0.000000  -0.000000   0.000001   0.000000  -0.000000
    28  H   -0.000000   0.000000   0.000000  -0.000000  -0.000000   0.000000
    29  C   -0.035183   0.005327   0.003481  -0.004568  -0.025137   0.002654
    30  C    0.000000  -0.000000  -0.000000   0.000000   0.000000  -0.000000
    31  H   -0.000000   0.000000   0.000000  -0.000000  -0.000000   0.000000
    32  H   -0.000000  -0.000000   0.000000  -0.000000   0.000000  -0.000000
    33  C   -0.000000  -0.000000   0.000000   0.000000   0.000000  -0.000000
    34  H    0.000000   0.000000  -0.000000   0.000000  -0.000000   0.000000
    35  H    0.000000   0.000000   0.000000  -0.000000  -0.000000   0.000000
    36  C    0.000000   0.000000  -0.000000   0.000000  -0.000000   0.000000
    37  H    0.000000  -0.000000  -0.000000   0.000000   0.000000   0.000000
    38  H   -0.000000   0.000000   0.000000  -0.000000   0.000000  -0.000000
    39  H   -0.000000   0.000000   0.000000  -0.000000  -0.000000  -0.000000
    40  H   -0.005749   0.001961   0.000572  -0.000250   0.002218   0.000060
    41  N    0.299888  -0.022296  -0.020449  -0.024788   0.297697  -0.026789
    42  H    0.004808   0.000372  -0.000135  -0.000422  -0.000338   0.000277
    43  C    4.518825   0.407243   0.402378   0.400216  -0.032578   0.001811
    44  H    0.407243   0.523542  -0.013446  -0.016624   0.004075  -0.000265
    45  H    0.402378  -0.013446   0.529085  -0.017441  -0.004511   0.000041
    46  H    0.400216  -0.016624  -0.017441   0.539018  -0.001361   0.000516
    47  C   -0.032578   0.004075  -0.004511  -0.001361   4.512408   0.400591
    48  H    0.001811  -0.000265   0.000041   0.000516   0.400591   0.525373
    49  H    0.000135   0.000356   0.000673   0.000218   0.406544  -0.014060
    50  H    0.001331  -0.000181   0.000818  -0.000215   0.401743  -0.014511
              49         50
     1  O   -0.000000   0.000000
     2  C   -0.000002  -0.000001
     3  C    0.000002  -0.000001
     4  O    0.000000  -0.000000
     5  N   -0.000027   0.000161
     6  H   -0.000083  -0.000068
     7  C   -0.000000   0.000000
     8  N   -0.000000   0.000000
     9  C   -0.000000  -0.000000
    10  C    0.000000   0.000000
    11  H   -0.000000   0.000000
    12  C    0.000000   0.000000
    13  C    0.000000  -0.000000
    14  H    0.000000  -0.000000
    15  C    0.000000   0.000000
    16  H   -0.000000   0.000000
    17  C    0.000000  -0.000000
    18  C    0.000004   0.000002
    19  H    0.000001  -0.000010
    20  C    0.000000   0.000000
    21  C   -0.000208  -0.000034
    22  H    0.000009  -0.000004
    23  H    0.000033   0.000003
    24  C    0.000000  -0.000000
    25  H    0.000000  -0.000000
    26  H   -0.000000   0.000000
    27  C    0.000000   0.000000
    28  H    0.000000   0.000000
    29  C    0.004144  -0.005002
    30  C   -0.000000   0.000000
    31  H    0.000000   0.000000
    32  H   -0.000000   0.000000
    33  C   -0.000000   0.000000
    34  H    0.000000  -0.000000
    35  H    0.000000   0.000000
    36  C    0.000000  -0.000000
    37  H    0.000000  -0.000000
    38  H   -0.000000   0.000000
    39  H   -0.000000   0.000000
    40  H   -0.000300   0.000727
    41  N   -0.019974  -0.022077
    42  H    0.000397   0.001527
    43  C    0.000135   0.001331
    44  H    0.000356  -0.000181
    45  H    0.000673   0.000818
    46  H    0.000218  -0.000215
    47  C    0.406544   0.401743
    48  H   -0.014060  -0.014511
    49  H    0.529776  -0.015047
    50  H   -0.015047   0.528280
 Mulliken charges:
               1
     1  O   -0.412859
     2  C    0.033177
     3  C    0.069661
     4  O   -0.417038
     5  N   -0.271151
     6  H    0.184465
     7  C   -0.087846
     8  N   -0.362538
     9  C    0.090828
    10  C   -0.109488
    11  H    0.027015
    12  C   -0.119684
    13  C   -0.083362
    14  H    0.017976
    15  C   -0.038477
    16  H    0.034299
    17  C    0.219607
    18  C   -0.157985
    19  H    0.020256
    20  C    0.223084
    21  C    0.047285
    22  H    0.104346
    23  H    0.071763
    24  C    0.137122
    25  H    0.045729
    26  H    0.045869
    27  C   -0.090282
    28  H    0.021398
    29  C    0.084488
    30  C   -0.084095
    31  H    0.046891
    32  H    0.032162
    33  C   -0.113565
    34  H    0.033714
    35  H    0.043390
    36  C   -0.087803
    37  H    0.044479
    38  H    0.044779
    39  H    0.049472
    40  H    0.115173
    41  N   -0.327436
    42  H    0.096595
    43  C    0.034365
    44  H    0.112465
    45  H    0.119124
    46  H    0.121880
    47  C    0.039828
    48  H    0.120954
    49  H    0.107409
    50  H    0.122560
 Sum of Mulliken charges =  -0.00000
 Mulliken charges with hydrogens summed into heavy atoms:
               1
     1  O   -0.412859
     2  C    0.033177
     3  C    0.069661
     4  O   -0.417038
     5  N   -0.086686
     7  C   -0.087846
     8  N   -0.362538
     9  C    0.090828
    10  C   -0.082473
    12  C   -0.119684
    13  C   -0.065387
    15  C   -0.004179
    17  C    0.219607
    18  C   -0.137730
    20  C    0.223084
    21  C    0.223394
    24  C    0.228720
    27  C   -0.068884
    29  C    0.296257
    30  C   -0.005042
    33  C   -0.036461
    36  C    0.050927
    41  N   -0.327436
    43  C    0.387834
    47  C    0.390751
 Electronic spatial extent (au):  <R**2>=          12505.6156
 Charge=             -0.0000 electrons
 Dipole moment (field-independent basis, Debye):
    X=             34.7766    Y=             -0.9957    Z=              6.5421  Tot=             35.4006
 Quadrupole moment (field-independent basis, Debye-Ang):
   XX=            -21.5226   YY=           -161.7548   ZZ=           -147.6201
   XY=              2.4262   XZ=             14.9323   YZ=             -0.0777
 Traceless Quadrupole moment (field-independent basis, Debye-Ang):
   XX=             88.7766   YY=            -51.4556   ZZ=            -37.3210
   XY=              2.4262   XZ=             14.9323   YZ=             -0.0777
 Octapole moment (field-independent basis, Debye-Ang**2):
  XXX=           1047.2839  YYY=              4.6742  ZZZ=             32.5636  XYY=            146.0947
  XXY=            -19.4175  XXZ=            142.1403  XZZ=             68.4712  YZZ=             -5.5883
  YYZ=             21.1842  XYZ=              4.6329
 Hexadecapole moment (field-independent basis, Debye-Ang**3):
 XXXX=          -7671.6367 YYYY=          -2140.4450 ZZZZ=          -1121.0819 XXXY=            250.5963
 XXXZ=            797.6122 YYYX=            -40.5398 YYYZ=             -2.5153 ZZZX=            179.6692
 ZZZY=              8.1389 XXYY=          -2548.6338 XXZZ=          -2114.7808 YYZZ=           -574.7001
 XXYZ=             23.7031 YYXZ=            -26.5386 ZZXY=            -19.6803
 N-N= 2.140195380062D+03 E-N=-6.814305140828D+03  KE= 1.078697825575D+03
 Unable to Open any file for archive entry.
 1\1\GINC-X1001C0S6B0N0\SP\RM062X TD-FC\def2SVP\C20H25N3O2\1008721\15-O
 ct-2025\0\\# td=(nstates=3,root=2) m062x scrf=(smd,solvent=ethanol,cor
 rectedlr,noneq=save) def2svp\\naphNHR_WB97XD_EtOH\\0,1\O,0,-2.833594,-
 2.411456,-0.877022\C,0,0.993648,0.550943,-0.457905\C,0,1.88617,-0.5771
 69,-0.448405\O,0,-3.60323,2.1032,-0.602339\N,0,3.259225,-0.328399,-0.3
 30162\H,0,3.453551,0.482237,0.253081\C,0,-0.915483,-1.021113,-0.671072
 \N,0,-3.188667,-0.155867,-0.7236\C,0,-0.42218,0.309266,-0.551819\C,0,1
 .363809,-1.880023,-0.576395\H,0,2.033503,-2.740884,-0.569663\C,0,-1.33
 1744,1.41065,-0.529515\C,0,-0.831674,2.739223,-0.427537\H,0,-1.541118,
 3.567852,-0.410495\C,0,0.536218,2.965623,-0.365114\H,0,0.913894,3.9908
 6,-0.30654\C,0,-2.758009,1.182822,-0.616132\C,0,1.450112,1.898718,-0.3
 85985\H,0,2.518013,2.119108,-0.373794\C,0,-2.34355,-1.26994,-0.764982\
 C,0,4.200505,-1.412518,-0.150869\H,0,4.060697,-2.158615,-0.946041\H,0,
 4.074699,-1.947088,0.811793\C,0,-4.633269,-0.411515,-0.826484\H,0,-4.7
 74138,-1.196592,-1.58167\H,0,-5.093447,0.513533,-1.192988\C,0,-0.00481
 7,-2.10016,-0.696143\H,0,-0.392732,-3.115585,-0.792755\C,0,5.6552,-0.9
 41129,-0.298997\C,0,-5.298629,-0.853419,0.482908\H,0,-6.354148,-1.0809
 52,0.245204\H,0,-4.847621,-1.806266,0.809469\C,0,-5.248278,0.159224,1.
 630764\H,0,-5.685069,1.117045,1.297099\H,0,-4.195605,0.378996,1.882343
 \C,0,-5.972184,-0.328984,2.885574\H,0,-5.534672,-1.270019,3.261756\H,0
 ,-7.040932,-0.520405,2.686364\H,0,-5.914473,0.412228,3.700084\H,0,6.31
 0757,-1.822863,-0.22913\N,0,6.071683,-0.016918,0.739456\H,0,5.802287,-
 0.455222,-1.271066\C,0,6.134461,-0.439092,2.114691\H,0,6.037181,-1.526
 889,2.194128\H,0,7.086483,-0.101407,2.54995\H,0,5.318431,0.05393,2.671
 194\C,0,6.364209,1.351678,0.399288\H,0,5.504461,1.779303,-0.140589\H,0
 ,6.585738,1.934302,1.29976\H,0,7.226079,1.369198,-0.287695\\Version=ES
 64L-G16RevC.01\State=1-A\HF=-1090.6791269\RMSD=7.028e-09\Dipole=13.682
 1684,-0.3917537,2.5738477\Quadrupole=66.0032196,-38.2559918,-27.747227
 9,1.8038071,11.1018337,-0.0578004\PG=C01 [X(C20H25N3O2)]\\@
 The archive entry for this job was punched.


 IF IT HAPPENS, IT MUST BE POSSIBLE.

 -- THE UNNAMED LAW FROM PAUL DICKSON'S 
    "THE OFFICIAL RULES"
 Job cpu time:       1 days  0 hours 57 minutes 12.3 seconds.
 Elapsed time:       0 days  0 hours 23 minutes 45.3 seconds.
 File lengths (MBytes):  RWF=   1334 Int=      0 D2E=      0 Chk=     44 Scr=      1
 Normal termination of Gaussian 16 at Wed Oct 15 20:28:00 2025.
