 Entering Gaussian System, Link 0=g16
 Initial command:
 /home/users/sutd/1008721/g16/l1.exe "/home/users/sutd/1008721/scratch/g16/scratch/Gau-2716132.inp" -scrdir="/home/users/sutd/1008721/scratch/g16/scratch/"
 Entering Link 1 = /home/users/sutd/1008721/g16/l1.exe PID=   2716133.
  
 Copyright (c) 1988-2019, Gaussian, Inc.  All Rights Reserved.
  
 This is part of the Gaussian(R) 16 program.  It is based on
 the Gaussian(R) 09 system (copyright 2009, Gaussian, Inc.),
 the Gaussian(R) 03 system (copyright 2003, Gaussian, Inc.),
 the Gaussian(R) 98 system (copyright 1998, Gaussian, Inc.),
 the Gaussian(R) 94 system (copyright 1995, Gaussian, Inc.),
 the Gaussian 92(TM) system (copyright 1992, Gaussian, Inc.),
 the Gaussian 90(TM) system (copyright 1990, Gaussian, Inc.),
 the Gaussian 88(TM) system (copyright 1988, Gaussian, Inc.),
 the Gaussian 86(TM) system (copyright 1986, Carnegie Mellon
 University), and the Gaussian 82(TM) system (copyright 1983,
 Carnegie Mellon University). Gaussian is a federally registered
 trademark of Gaussian, Inc.
  
 This software contains proprietary and confidential information,
 including trade secrets, belonging to Gaussian, Inc.
  
 This software is provided under written license and may be
 used, copied, transmitted, or stored only in accord with that
 written license.
  
 The following legend is applicable only to US Government
 contracts under FAR:
  
                    RESTRICTED RIGHTS LEGEND
  
 Use, reproduction and disclosure by the US Government is
 subject to restrictions as set forth in subparagraphs (a)
 and (c) of the Commercial Computer Software - Restricted
 Rights clause in FAR 52.227-19.
  
 Gaussian, Inc.
 340 Quinnipiac St., Bldg. 40, Wallingford CT 06492
  
  
 ---------------------------------------------------------------
 Warning -- This program may not be used in any manner that
 competes with the business of Gaussian, Inc. or will provide
 assistance to any competitor of Gaussian, Inc.  The licensee
 of this program is prohibited from giving any competitor of
 Gaussian, Inc. access to this program.  By using this program,
 the user acknowledges that Gaussian, Inc. is engaged in the
 business of creating and licensing software in the field of
 computational chemistry and represents and warrants to the
 licensee that it is not a competitor of Gaussian, Inc. and that
 it will not use this program in any manner prohibited above.
 ---------------------------------------------------------------
  

 Cite this work as:
 Gaussian 16, Revision C.01,
 M. J. Frisch, G. W. Trucks, H. B. Schlegel, G. E. Scuseria, 
 M. A. Robb, J. R. Cheeseman, G. Scalmani, V. Barone, 
 G. A. Petersson, H. Nakatsuji, X. Li, M. Caricato, A. V. Marenich, 
 J. Bloino, B. G. Janesko, R. Gomperts, B. Mennucci, H. P. Hratchian, 
 J. V. Ortiz, A. F. Izmaylov, J. L. Sonnenberg, D. Williams-Young, 
 F. Ding, F. Lipparini, F. Egidi, J. Goings, B. Peng, A. Petrone, 
 T. Henderson, D. Ranasinghe, V. G. Zakrzewski, J. Gao, N. Rega, 
 G. Zheng, W. Liang, M. Hada, M. Ehara, K. Toyota, R. Fukuda, 
 J. Hasegawa, M. Ishida, T. Nakajima, Y. Honda, O. Kitao, H. Nakai, 
 T. Vreven, K. Throssell, J. A. Montgomery, Jr., J. E. Peralta, 
 F. Ogliaro, M. J. Bearpark, J. J. Heyd, E. N. Brothers, K. N. Kudin, 
 V. N. Staroverov, T. A. Keith, R. Kobayashi, J. Normand, 
 K. Raghavachari, A. P. Rendell, J. C. Burant, S. S. Iyengar, 
 J. Tomasi, M. Cossi, J. M. Millam, M. Klene, C. Adamo, R. Cammi, 
 J. W. Ochterski, R. L. Martin, K. Morokuma, O. Farkas, 
 J. B. Foresman, and D. J. Fox, Gaussian, Inc., Wallingford CT, 2019.
 
 ******************************************
 Gaussian 16:  ES64L-G16RevC.01  3-Jul-2019
                15-Oct-2025 
 ******************************************
 %nprocshared=32
 Will use up to   32 processors via shared memory.
 %mem=64GB
 %oldchk=06BN-1_ethanol_m062x_m062x_m062x.chk
 %chk=07BN-1_ethanol_m062x_m062x_m062x.chk
 Copying data from "06BN-1_ethanol_m062x_m062x_m062x.chk" to current chk file "07BN-1_ethanol_m062x_m062x_m062x.chk"
 IOpt=  2 FromEx=T IUOpen= 4 IOptOp= 5 NList=   0 IFRang= 0 IUIn= 4 IUOut= 2.
 ----------------------------------------------------------------------
 # m062x/def2svp geom=check guess=read SCRF=(SMD, solvent=ethanol, NonE
 q=Read)
 ----------------------------------------------------------------------
 1/29=2,38=1,172=1/1;
 2/12=2,40=1/2;
 3/5=43,7=101,11=2,14=-4,25=1,30=1,70=6032201,72=4,74=-55,116=-2/1,2,3;
 4/5=1/1;
 5/5=2,38=6,53=4/2;
 6/7=2,8=2,9=2,10=2,28=1/1;
 99/5=1,9=1/99;
 --------------------------------
 BN-1_ethanol_m062x_m062x_m062x
 --------------------------------
 Structure from the checkpoint file:  "07BN-1_ethanol_m062x_m062x_m062x.chk"
 Charge =  0 Multiplicity = 1
 Z-Matrix found in chk file.
 O,0,-2.833594,-2.411456,-0.877022
 C,0,0.993648,0.550943,-0.457905
 C,0,1.88617,-0.577169,-0.448405
 O,0,-3.60323,2.1032,-0.602339
 N,0,3.259225,-0.328399,-0.330162
 H,0,3.453551,0.482237,0.253081
 C,0,-0.915483,-1.021113,-0.671072
 N,0,-3.188667,-0.155867,-0.7236
 C,0,-0.42218,0.309266,-0.551819
 C,0,1.363809,-1.880023,-0.576395
 H,0,2.033503,-2.740884,-0.569663
 C,0,-1.331744,1.41065,-0.529515
 C,0,-0.831674,2.739223,-0.427537
 H,0,-1.541118,3.567852,-0.410495
 C,0,0.536218,2.965623,-0.365114
 H,0,0.913894,3.99086,-0.30654
 C,0,-2.758009,1.182822,-0.616132
 C,0,1.450112,1.898718,-0.385985
 H,0,2.518013,2.119108,-0.373794
 C,0,-2.34355,-1.26994,-0.764982
 C,0,4.200505,-1.412518,-0.150869
 H,0,4.060697,-2.158615,-0.946041
 H,0,4.074699,-1.947088,0.811793
 C,0,-4.633269,-0.411515,-0.826484
 H,0,-4.774138,-1.196592,-1.58167
 H,0,-5.093447,0.513533,-1.192988
 C,0,-0.004817,-2.10016,-0.696143
 H,0,-0.392732,-3.115585,-0.792755
 C,0,5.6552,-0.941129,-0.298997
 C,0,-5.298629,-0.853419,0.482908
 H,0,-6.354148,-1.080952,0.245204
 H,0,-4.847621,-1.806266,0.809469
 C,0,-5.248278,0.159224,1.630764
 H,0,-5.685069,1.117045,1.297099
 H,0,-4.195605,0.378996,1.882343
 C,0,-5.972184,-0.328984,2.885574
 H,0,-5.534672,-1.270019,3.261756
 H,0,-7.040932,-0.520405,2.686364
 H,0,-5.914473,0.412228,3.700084
 H,0,6.310757,-1.822863,-0.22913
 N,0,6.071683,-0.016918,0.739456
 H,0,5.802287,-0.455222,-1.271066
 C,0,6.134461,-0.439092,2.114691
 H,0,6.037181,-1.526889,2.194128
 H,0,7.086483,-0.101407,2.54995
 H,0,5.318431,0.05393,2.671194
 C,0,6.364209,1.351678,0.399288
 H,0,5.504461,1.779303,-0.140589
 H,0,6.585738,1.934302,1.29976
 H,0,7.226079,1.369198,-0.287695
 Recover connectivity data from disk.
                          Input orientation:                          
 ---------------------------------------------------------------------
 Center     Atomic      Atomic             Coordinates (Angstroms)
 Number     Number       Type             X           Y           Z
 ---------------------------------------------------------------------
      1          8           0       -2.833594   -2.411456   -0.877022
      2          6           0        0.993648    0.550943   -0.457905
      3          6           0        1.886170   -0.577169   -0.448405
      4          8           0       -3.603230    2.103200   -0.602339
      5          7           0        3.259225   -0.328399   -0.330162
      6          1           0        3.453551    0.482237    0.253081
      7          6           0       -0.915483   -1.021113   -0.671072
      8          7           0       -3.188667   -0.155867   -0.723600
      9          6           0       -0.422180    0.309266   -0.551819
     10          6           0        1.363809   -1.880023   -0.576395
     11          1           0        2.033503   -2.740884   -0.569663
     12          6           0       -1.331744    1.410650   -0.529515
     13          6           0       -0.831674    2.739223   -0.427537
     14          1           0       -1.541118    3.567852   -0.410495
     15          6           0        0.536218    2.965623   -0.365114
     16          1           0        0.913894    3.990860   -0.306540
     17          6           0       -2.758009    1.182822   -0.616132
     18          6           0        1.450112    1.898718   -0.385985
     19          1           0        2.518013    2.119108   -0.373794
     20          6           0       -2.343550   -1.269940   -0.764982
     21          6           0        4.200505   -1.412518   -0.150869
     22          1           0        4.060697   -2.158615   -0.946041
     23          1           0        4.074699   -1.947088    0.811793
     24          6           0       -4.633269   -0.411515   -0.826484
     25          1           0       -4.774138   -1.196592   -1.581670
     26          1           0       -5.093447    0.513533   -1.192988
     27          6           0       -0.004817   -2.100160   -0.696143
     28          1           0       -0.392732   -3.115585   -0.792755
     29          6           0        5.655200   -0.941129   -0.298997
     30          6           0       -5.298629   -0.853419    0.482908
     31          1           0       -6.354148   -1.080952    0.245204
     32          1           0       -4.847621   -1.806266    0.809469
     33          6           0       -5.248278    0.159224    1.630764
     34          1           0       -5.685069    1.117045    1.297099
     35          1           0       -4.195605    0.378996    1.882343
     36          6           0       -5.972184   -0.328984    2.885574
     37          1           0       -5.534672   -1.270019    3.261756
     38          1           0       -7.040932   -0.520405    2.686364
     39          1           0       -5.914473    0.412228    3.700084
     40          1           0        6.310757   -1.822863   -0.229130
     41          7           0        6.071683   -0.016918    0.739456
     42          1           0        5.802287   -0.455222   -1.271066
     43          6           0        6.134461   -0.439092    2.114691
     44          1           0        6.037181   -1.526889    2.194128
     45          1           0        7.086483   -0.101407    2.549950
     46          1           0        5.318431    0.053930    2.671194
     47          6           0        6.364209    1.351678    0.399288
     48          1           0        5.504461    1.779303   -0.140589
     49          1           0        6.585738    1.934302    1.299760
     50          1           0        7.226079    1.369198   -0.287695
 ---------------------------------------------------------------------
                    Distance matrix (angstroms):
                    1          2          3          4          5
     1  O    0.000000
     2  C    4.857906   0.000000
     3  C    5.081781   1.438514   0.000000
     4  O    4.588018   4.854034   6.110776   0.000000
     5  N    6.462246   2.433598   1.400410   7.285605   0.000000
     6  H    7.012759   2.561512   2.017698   7.290914   1.017382
     7  C    2.377944   2.482253   2.845334   4.121898   4.245499
     8  N    2.288514   4.249933   5.099725   2.299989   6.462188
     9  C    3.650069   1.439374   2.474862   3.652373   3.742792
    10  C    4.241579   2.461840   1.409493   6.366963   2.461863
    11  H    4.887906   3.453971   2.172113   7.432293   2.716586
    12  C    4.121263   2.480256   3.783249   2.375832   4.913352
    13  C    5.544296   2.849788   4.287839   2.848965   5.114220
    14  H    6.135166   3.940689   5.378563   2.536595   6.183083
    15  C    6.366370   2.459376   3.792187   4.234983   4.273941
    16  H    7.440347   3.444169   4.672508   4.904607   4.914991
    17  C    3.604526   3.807786   4.969316   1.249674   6.210690
    18  C    6.096626   1.424791   2.514768   5.062103   2.869853
    19  H    7.029861   2.188585   2.770325   6.125529   2.557653
    20  C    1.247299   3.814027   4.297753   3.604347   5.697952
    21  C    7.141689   3.772715   2.478403   8.571020   1.446882
    22  H    6.899271   4.121501   2.734443   8.775932   2.090779
    23  H    7.126868   4.164753   2.873053   8.795180   2.142245
    24  C    2.690938   5.720522   6.532493   2.726722   7.908521
    25  H    2.395440   6.130586   6.784370   3.635759   8.176488
    26  H    3.709762   6.131433   7.103456   2.257577   8.439221
    27  C    2.851596   2.842892   2.440637   5.534041   3.731896
    28  H    2.541792   3.934158   3.428633   6.130194   4.617271
    29  C    8.634558   4.897101   3.789509   9.750820   2.473278
    30  C    3.217652   6.515375   7.250172   3.576833   8.612409
    31  H    3.927331   7.559600   8.284789   4.292401   9.659934
    32  H    2.695702   6.425192   6.959660   4.338852   8.318882
    33  C    4.327596   6.593756   7.467635   3.387030   8.744176
    34  H    5.030709   6.928620   7.952409   2.985703   9.205307
    35  H    4.154009   5.695145   6.582904   3.081790   7.808334
    36  C    5.323961   7.776628   8.539950   4.867545   9.775473
    37  H    5.072296   7.731154   8.325517   5.480904   9.545740
    38  H    5.828850   8.694176   9.461667   5.432924  10.734502
    39  H    6.197976   8.064134   8.890382   5.168372  10.047295
    40  H    9.186150   5.827430   4.601826  10.669601   3.399335
    41  N    9.362199   5.248102   4.386732   9.994962   3.025066
    42  H    8.863440   4.979619   4.003450   9.770183   2.714507
    43  C    9.657462   5.833213   4.963517  10.424401   3.775784
    44  H    9.428949   6.065302   5.011571  10.674048   3.940236
    45  H   10.746553   6.826082   6.021606  11.360774   4.795255
    46  H    9.226238   5.361159   4.680876   9.721706   3.659869
    47  C   10.019467   5.497170   4.948926  10.045789   3.604952
    48  H    9.360980   4.685829   4.328942   9.125139   3.085357
    49  H   10.599425   6.022835   5.607986  10.366368   4.340755
    50  H   10.762791   6.288220   5.685842  10.858715   4.315040
                    6          7          8          9         10
     6  H    0.000000
     7  C    4.711961   0.000000
     8  N    6.743897   2.432853   0.000000
     9  C    3.962206   1.423895   2.810571   0.000000
    10  C    3.261185   2.437594   4.870259   2.825482   0.000000
    11  H    3.616898   3.415321   5.828985   3.915880   1.090696
    12  C    4.936948   2.471191   2.437172   1.428584   4.254025
    13  C    4.890847   3.769146   3.744945   2.467351   5.116614
    14  H    5.908305   4.638741   4.083936   3.448243   6.176202
    15  C    3.880748   4.253835   4.873087   2.830127   4.920349
    16  H    4.367318   5.347839   5.848101   3.924206   5.894278
    17  C    6.311088   2.873195   1.410356   2.494661   5.135366
    18  C    2.535467   3.768651   5.084641   2.461572   3.784519
    19  H    1.986844   4.662430   6.153379   3.457160   4.167287
    20  C    6.141088   1.452622   1.398962   2.496196   3.761951
    21  C    2.076346   5.157242   7.517117   4.949194   2.906282
    22  H    2.963211   5.111936   7.524211   5.132449   2.736322
    23  H    2.568969   5.287555   7.636910   5.212724   3.046389
    24  C    8.207369   3.770636   1.470652   4.281149   6.179321
    25  H    8.595327   3.968526   2.081613   4.718871   6.257160
    26  H    8.668522   4.481397   2.072826   4.719487   6.914149
    27  C    4.419288   1.412191   3.730674   2.449562   1.391380
    28  H    5.369543   2.162149   4.072096   3.433442   2.158440
    29  C    2.679183   6.581695   8.888808   6.209827   4.401648
    30  C    8.856492   4.535610   2.528672   5.118813   6.823791
    31  H    9.931494   5.515634   3.437242   6.144607   7.802589
    32  H    8.628805   4.274363   2.797543   5.090492   6.364583
    33  C    8.816132   5.046262   3.143932   5.298811   7.262904
    34  H    9.219942   5.585192   3.454787   5.636400   7.885371
    35  H    7.821428   4.386278   2.844458   4.490962   6.485032
    36  C    9.820009   6.220852   4.561148   6.559389   8.258798
    37  H    9.639019   6.071738   4.756904   6.570774   7.917863
    38  H   10.819442   7.003157   5.157585   7.414989   9.117775
    39  H    9.982315   6.793480   5.227019   6.946550   8.747347
    40  H    3.702653   7.284000   9.657248   7.069833   4.959451
    41  N    2.709305   7.198506   9.376242   6.629030   5.231319
    42  H    2.952696   6.768209   9.012579   6.312349   4.713036
    43  C    3.391418   7.602693   9.749709   7.117574   5.663687
    44  H    3.805180   7.536890   9.772876   7.255001   5.444346
    45  H    4.337562   8.674808  10.784146   8.134473   6.759179
    46  H    3.083585   7.154589   9.161842   6.588446   5.470470
    47  C    3.041255   7.731088   9.736067   6.931544   6.033229
    48  H    2.458371   7.024203   8.924980   6.120065   5.543067
    49  H    3.607579   8.299818  10.198127   7.428324   6.733318
    50  H    3.912941   8.493856  10.534836   7.725871   6.708725
                   11         12         13         14         15
    11  H    0.000000
    12  C    5.344318   0.000000
    13  C    6.185549   1.423227   0.000000
    14  H    7.252820   2.170604   1.090975   0.000000
    15  C    5.903213   2.436032   1.387906   2.163346   0.000000
    16  H    6.829285   3.427841   2.151335   2.493356   1.094158
    17  C    6.193239   1.446942   2.483691   2.685420   3.754107
    18  C    4.679742   2.827991   2.432020   3.425502   1.404964
    19  H    4.888009   3.917498   3.407027   4.310075   2.155035
    20  C    4.621733   2.874849   4.298026   4.916685   5.137407
    21  C    2.576013   6.222494   6.529650   7.605112   5.713232
    22  H    2.142478   6.480090   6.942115   8.028671   6.246378
    23  H    2.589404   6.504086   6.897097   7.965297   6.167713
    24  C    7.066666   3.782664   4.953628   5.056660   6.192053
    25  H    7.053579   4.444639   5.689085   5.875712   6.855941
    26  H    7.859592   3.923700   4.868503   4.749758   6.196067
    27  C    2.140391   3.756899   4.916856   5.879471   5.105336
    28  H    2.465114   4.630102   5.882587   6.792146   6.166597
    29  C    4.053279   7.375730   7.459293   8.492958   6.439803
    30  C    7.643990   4.678374   5.804281   5.870664   7.024932
    31  H    8.589067   5.659754   6.748632   6.723584   8.014013
    32  H    7.079928   4.950032   6.190273   6.426696   7.289464
    33  C    8.141059   4.644579   5.513564   5.434015   6.731998
    34  H    8.828634   4.730133   5.400118   5.108293   6.699597
    35  H    7.385646   3.883693   4.714048   4.740486   5.842247
    36  C    9.046930   6.018542   6.842181   6.758975   7.986282
    37  H    8.609326   6.262933   7.197437   7.269037   8.243213
    38  H    9.893311   6.831228   7.673098   7.520129   8.881279
    39  H    9.557362   6.315676   6.948885   6.780933   8.040962
    40  H    4.387896   8.303834   8.477400   9.525998   7.502892
    41  N    5.043876   7.645847   7.524262   8.492803   6.384121
    42  H    4.463177   7.411193   7.411171   8.417322   6.344636
    43  C    5.414966   8.133731   8.067939   9.019239   7.005843
    44  H    5.014156   8.387397   8.500236   9.495844   7.549369
    45  H    6.498571   9.090433   8.923666   9.831744   7.798092
    46  H    5.394895   7.504003   7.391666   8.300474   6.369198
    47  C    6.036799   7.752022   7.374934   8.249932   6.095458
    48  H    5.715220   6.857176   6.414857   7.274059   5.112847
    49  H    6.787853   8.142910   7.658293   8.463997   6.358626
    50  H    6.628358   8.561339   8.174589   9.039519   6.878140
                   16         17         18         19         20
    16  H    0.000000
    17  C    4.632904   0.000000
    18  C    2.161226   4.274782   0.000000
    19  H    2.466004   5.363932   1.090474   0.000000
    20  C    6.204605   2.491982   4.957409   5.939147   0.000000
    21  C    6.326337   7.441316   4.310942   3.918272   6.574353
    22  H    6.937390   7.600578   4.857033   4.583258   6.468145
    23  H    6.819134   7.649915   4.807635   4.512520   6.643694
    24  C    7.100864   2.470376   6.522173   7.599330   2.446117
    25  H    7.803161   3.264759   7.053502   8.101129   2.565174
    26  H    6.997552   2.496994   6.737073   7.821974   3.305435
    27  C    6.172224   4.285375   4.266619   4.926541   2.482675
    28  H    7.241908   4.909382   5.357683   6.004163   2.685678
    29  C    6.841385   8.682962   5.074945   4.383217   8.019056
    30  C    7.917431   3.436410   7.339941   8.406530   3.234689
    31  H    8.879872   4.335757   8.377548   9.451920   4.140180
    32  H    8.249073   3.915797   7.403881   8.429783   3.006146
    33  C    7.510456   3.506813   7.208436   8.256796   4.027351
    34  H    7.374062   3.497493   7.372557   8.431285   4.595174
    35  H    6.629008   2.992523   6.271283   7.293203   3.627317
    36  C    8.733196   4.987828   8.411672   9.418072   5.232489
    37  H    9.055031   5.363236   8.493181   9.463041   5.137887
    38  H    9.622278   5.670176   9.348225  10.378103   5.876988
    39  H    8.688282   5.402481   8.552352   9.519283   5.959698
    40  H    7.932938   9.561717   6.123776   5.472200   8.688492
    41  N    6.615072   9.013349   5.127884   4.293076   8.639997
    42  H    6.677899   8.740183   5.026513   4.268340   8.202106
    43  C    7.262311   9.442670   5.801884   5.080909   8.992191
    44  H    7.933912   9.622654   6.279568   5.680850   8.891513
    45  H    7.937697  10.420525   6.662499   5.860877  10.063785
    46  H    6.615608   8.792599   5.264359   4.623770   8.500935
    47  C    6.096672   9.180112   5.006421   3.997478   9.168068
    48  H    5.098218   8.297611   4.063524   3.014751   8.442691
    49  H    6.243352   9.567705   5.405336   4.402422   9.708888
    50  H    6.834994   9.991227   5.801021   4.768193   9.938342
                   21         22         23         24         25
    21  C    0.000000
    22  H    1.099320   0.000000
    23  H    1.108292   1.770571   0.000000
    24  C    8.915942   8.868579   8.992811   0.000000
    25  H    9.090546   8.909760   9.197490   1.098406   0.000000
    26  H    9.548467   9.539377   9.701995   1.096268   1.782571
    27  C    4.295918   4.073607   4.351983   4.928598   4.934270
    28  H    4.940676   4.557666   4.888548   5.029442   4.847849
    29  C    1.536323   2.107932   2.178025  10.315587  10.511023
    30  C    9.536656   9.557323   9.442646   1.533783   2.157624
    31  H   10.567285  10.537999  10.480079   2.134967   2.418113
    32  H    9.107462   9.086479   8.923432   2.160467   2.468734
    33  C    9.742899   9.933243   9.592975   2.596545   3.518917
    34  H   10.306303  10.523383  10.240972   2.819997   3.803948
    35  H    8.822592   9.088770   8.657637   2.855556   3.849229
    36  C   10.671346  10.894380  10.385504   3.947009   4.705776
    37  H   10.316976  10.515049   9.939857   4.273554   4.903323
    38  H   11.628227  11.795095  11.362513   4.260141   4.879723
    39  H   10.975988  11.300430  10.662652   4.775966   5.637871
    40  H    2.151202   2.385259   2.469597  11.050812  11.184654
    41  N    2.498336   3.387009   2.778261  10.826074  11.153972
    42  H    2.176456   2.457707   3.090069  10.445113  10.606926
    43  C    3.133769   4.077418   2.866045  11.162226  11.542722
    44  H    2.980851   3.763805   2.436956  11.145701  11.456455
    45  H    4.164409   5.060577   3.936822  12.200371  12.607301
    46  H    3.371093   4.422854   3.001385  10.558727  11.023185
    47  C    3.553177   4.408881   4.036567  11.205172  11.596579
    48  H    3.447917   4.270879   4.103321  10.394407  10.797327
    49  H    4.358310   5.307676   4.648507  11.657182  12.130619
    50  H    4.112270   4.785241   4.705085  12.004390  12.339484
                   26         27         28         29         30
    26  H    0.000000
    27  C    5.742160   0.000000
    28  H    5.952093   1.091284   0.000000
    29  C   10.883413   5.791103   6.445893   0.000000
    30  C    2.172391   5.564977   5.550904  10.982051   0.000000
    31  H    2.490009   6.499148   6.384009  12.022485   1.105620
    32  H    3.074367   5.079960   4.911973  10.596528   1.103616
    33  C    2.850102   6.165484   6.338308  11.127470   1.531520
    34  H    2.629596   6.825590   7.091648  11.635519   2.166788
    35  H    3.206537   5.509765   5.816364  10.175428   2.166547
    36  C    4.256370   7.181590   7.240548  12.071134   2.549806
    37  H    4.818763   6.850795   6.803287  11.747356   2.819799
    38  H    4.462185   7.965168   7.939634  13.049182   2.828734
    39  H    4.962509   7.782219   7.944853  12.315907   3.511602
    40  H   11.680909   6.338886   6.850224   1.100950  11.671532
    41  N   11.343538   6.582150   7.330625   1.451209  11.403927
    42  H   10.938995   6.062905   6.759036   1.096658  11.245680
    43  C   11.743686   6.953465   7.630276   2.511498  11.556380
    44  H   11.812144   6.722205   7.265618   2.589343  11.484007
    45  H   12.756897   8.051004   8.729124   3.296999  12.578918
    46  H   11.115320   6.657029   7.393386   3.150490  10.878136
    47  C   11.598091   7.326640   8.187408   2.499452  11.869761
    48  H   10.724988   6.760992   7.691693   2.729206  11.136729
    49  H   12.026460   7.980973   8.864481   3.419068  12.234248
    50  H   12.382344   8.030513   8.855204   2.793814  12.743711
                   31         32         33         34         35
    31  H    0.000000
    32  H    1.764681   0.000000
    33  C    2.163507   2.167534   0.000000
    34  H    2.526923   3.079748   1.104328   0.000000
    35  H    3.077496   2.520229   1.104406   1.762308   0.000000
    36  C    2.771806   2.785178   1.528704   2.167184   2.159616
    37  H    3.131593   2.602559   2.187440   3.095250   2.532811
    38  H    2.597142   3.160188   2.188560   2.539619   3.090511
    39  H    3.789340   3.796781   2.188587   2.514703   2.501958
    40  H   12.695481  11.206621  11.874307  12.444769  10.940299
    41  N   12.481095  11.065165  11.356363  11.824469  10.338285
    42  H   12.266602  10.935012  11.441728  11.875472  10.516547
    43  C   12.644063  11.143558  11.408721  11.949532  10.365014
    44  H   12.551582  10.976076  11.424620  12.050153  10.413430
    45  H   13.671939  12.180257  12.371708  12.890570  11.312029
    46  H   11.975913  10.501189  10.618329  11.139810   9.552216
    47  C   12.949828  11.655299  11.738328  12.084958  10.707718
    48  H   12.204774  10.996568  11.017429  11.300934  10.007217
    49  H   13.328334  12.039682  11.970982  12.297993  10.908517
    50  H   13.809771  12.532421  12.678884  13.010492  11.668095
                   36         37         38         39         40
    36  C    0.000000
    37  H    1.103846   0.000000
    38  H    1.103879   1.778150   0.000000
    39  H    1.102793   1.779420   1.779422   0.000000
    40  H   12.759455  12.361477  13.728223  13.034209   0.000000
    41  N   12.237563  11.943188  13.265920  12.353842   2.063190
    42  H   12.487264  12.236707  13.439262  12.757244   1.792935
    43  C   12.131663  11.754780  13.188040  12.182571   2.727526
    44  H   12.088752  11.623837  13.126018  12.201234   2.456547
    45  H   13.064961  12.695112  14.134285  13.061833   3.359828
    46  H   11.299140  10.949495  12.372710  11.285616   3.594293
    47  C   12.696174  12.516005  13.727098  12.749269   3.236584
    48  H   12.054705  11.947250  13.063966  12.124839   3.692364
    49  H   12.858409  12.689422  13.915258  12.819264   4.065637
    50  H   13.680190  13.505585  14.695687  13.765619   3.321219
                   41         42         43         44         45
    41  N    0.000000
    42  H    2.075303   0.000000
    43  C    1.439946   3.402051   0.000000
    44  H    2.096968   3.634723   1.095023   0.000000
    45  H    2.077221   4.046543   1.099922   1.805448   0.000000
    46  H    2.074613   4.004343   1.103934   1.800884   1.778999
    47  C    1.440257   2.524030   2.490431   3.408012   2.694157
    48  H    2.079094   2.521861   3.225595   4.082352   3.644018
    49  H    2.094147   3.596216   2.549659   3.616718   2.440867
    50  H    2.075810   2.514500   3.198906   3.995027   3.199124
                   46         47         48         49         50
    46  H    0.000000
    47  C    2.817687   0.000000
    48  H    3.304186   1.101588   0.000000
    49  H    2.650037   1.095160   1.807703   0.000000
    50  H    3.758201   1.102303   1.775893   1.802607   0.000000
 Stoichiometry    C20H25N3O2
 Framework group  C1[X(C20H25N3O2)]
 Deg. of freedom   144
 Full point group                 C1      NOp   1
 Largest Abelian subgroup         C1      NOp   1
 Largest concise Abelian subgroup C1      NOp   1
                         Standard orientation:                         
 ---------------------------------------------------------------------
 Center     Atomic      Atomic             Coordinates (Angstroms)
 Number     Number       Type             X           Y           Z
 ---------------------------------------------------------------------
      1          8           0       -2.833594   -2.411456   -0.877022
      2          6           0        0.993648    0.550943   -0.457905
      3          6           0        1.886170   -0.577169   -0.448405
      4          8           0       -3.603230    2.103200   -0.602339
      5          7           0        3.259225   -0.328399   -0.330162
      6          1           0        3.453551    0.482237    0.253081
      7          6           0       -0.915483   -1.021113   -0.671072
      8          7           0       -3.188667   -0.155867   -0.723600
      9          6           0       -0.422180    0.309266   -0.551819
     10          6           0        1.363809   -1.880023   -0.576395
     11          1           0        2.033503   -2.740884   -0.569663
     12          6           0       -1.331744    1.410650   -0.529515
     13          6           0       -0.831674    2.739223   -0.427537
     14          1           0       -1.541118    3.567852   -0.410495
     15          6           0        0.536218    2.965623   -0.365114
     16          1           0        0.913894    3.990860   -0.306540
     17          6           0       -2.758009    1.182822   -0.616132
     18          6           0        1.450112    1.898718   -0.385985
     19          1           0        2.518013    2.119108   -0.373794
     20          6           0       -2.343550   -1.269940   -0.764982
     21          6           0        4.200505   -1.412518   -0.150869
     22          1           0        4.060697   -2.158615   -0.946041
     23          1           0        4.074699   -1.947088    0.811793
     24          6           0       -4.633269   -0.411515   -0.826484
     25          1           0       -4.774138   -1.196592   -1.581670
     26          1           0       -5.093447    0.513533   -1.192988
     27          6           0       -0.004817   -2.100160   -0.696143
     28          1           0       -0.392732   -3.115585   -0.792755
     29          6           0        5.655200   -0.941129   -0.298997
     30          6           0       -5.298629   -0.853419    0.482908
     31          1           0       -6.354148   -1.080952    0.245204
     32          1           0       -4.847621   -1.806266    0.809469
     33          6           0       -5.248278    0.159224    1.630764
     34          1           0       -5.685069    1.117045    1.297099
     35          1           0       -4.195605    0.378996    1.882343
     36          6           0       -5.972184   -0.328984    2.885574
     37          1           0       -5.534672   -1.270019    3.261756
     38          1           0       -7.040932   -0.520405    2.686364
     39          1           0       -5.914473    0.412228    3.700084
     40          1           0        6.310757   -1.822863   -0.229130
     41          7           0        6.071683   -0.016918    0.739456
     42          1           0        5.802287   -0.455222   -1.271066
     43          6           0        6.134461   -0.439092    2.114691
     44          1           0        6.037181   -1.526889    2.194128
     45          1           0        7.086483   -0.101407    2.549950
     46          1           0        5.318431    0.053930    2.671194
     47          6           0        6.364209    1.351678    0.399288
     48          1           0        5.504461    1.779303   -0.140589
     49          1           0        6.585738    1.934302    1.299760
     50          1           0        7.226079    1.369198   -0.287695
 ---------------------------------------------------------------------
 Rotational constants (GHZ):           0.4675677           0.0947422           0.0882636
 Standard basis: def2SVP (5D, 7F)
 There are   500 symmetry adapted cartesian basis functions of A   symmetry.
 There are   475 symmetry adapted basis functions of A   symmetry.
   475 basis functions,   800 primitive gaussians,   500 cartesian basis functions
    91 alpha electrons       91 beta electrons
       nuclear repulsion energy      2140.1979457665 Hartrees.
 NAtoms=   50 NActive=   50 NUniq=   50 SFac= 1.00D+00 NAtFMM=   60 NAOKFM=F Big=F
 Integral buffers will be    131072 words long.
 Raffenetti 2 integral format.
 Two-electron integral symmetry is turned on.
 ------------------------------------------------------------------------------
 Polarizable Continuum Model (PCM)
 =================================
 Model                : PCM.
 Atomic radii         : SMD-Coulomb.
 Polarization charges : Total charges.
 Charge compensation  : None.
 Solution method      : On-the-fly selection.
 Cavity type          : VdW (van der Waals Surface) (Alpha=1.000).
 Cavity algorithm     : GePol (No added spheres)
                        Default sphere list used, NSphG=   50.
                        Lebedev-Laikov grids with approx.  5.0 points / Ang**2.
                        Smoothing algorithm: York/Karplus (Gamma=1.0000).
                        Polarization charges: spherical gaussians, with
                                              point-specific exponents (IZeta= 3).
                        Self-potential: point-specific (ISelfS= 7).
                        Self-field    : sphere-specific E.n sum rule (ISelfD= 2).
 Solvent              : Ethanol, Eps=  24.852000 Eps(inf)=   1.852593
 ------------------------------------------------------------------------------
 ------------------------------------------------------------------------------
 Atomic radii for non-electrostatic terms: SMD-CDS.
 ------------------------------------------------------------------------------
 Nuclear repulsion after PCM non-electrostatic terms =     2140.1953800624 Hartrees.
 One-electron integrals computed using PRISM.
   1 Symmetry operations used in ECPInt.
 ECPInt:  NShTT=   25425 NPrTT=   90925 LenC2=   20719 LenP2D=   49979.
 LDataN:  DoStor=T MaxTD1= 4 Len=   56
 NBasis=   475 RedAO= T EigKep=  2.20D-04  NBF=   475
 NBsUse=   475 1.00D-06 EigRej= -1.00D+00 NBFU=   475
 Initial guess from the checkpoint file:  "07BN-1_ethanol_m062x_m062x_m062x.chk"
 B after Tr=    -0.000000   -0.000000    0.000000
         Rot=    1.000000   -0.000000    0.000000    0.000000 Ang=   0.00 deg.
 Requested convergence on RMS density matrix=1.00D-08 within 128 cycles.
 Requested convergence on MAX density matrix=1.00D-06.
 Requested convergence on             energy=1.00D-06.
 No special actions if energy rises.
 Inv3:  Mode=1 IEnd=    37002432.
 Iteration    1 A*A^-1 deviation from unit magnitude is 6.22D-15 for   3491.
 Iteration    1 A*A^-1 deviation from orthogonality  is 2.87D-15 for   1381    619.
 Iteration    1 A^-1*A deviation from unit magnitude is 6.00D-15 for   3491.
 Iteration    1 A^-1*A deviation from orthogonality  is 5.16D-14 for   1964   1963.
 NEqPCM:  Using non-equilibrium solvation (IEInf=1, Eps=  24.8520, EpsInf=   1.8526)
 Inv3:  Mode=1 IEnd=    37002432.
 Iteration    1 A*A^-1 deviation from unit magnitude is 8.44D-15 for   3504.
 Iteration    1 A*A^-1 deviation from orthogonality  is 2.78D-15 for   2870    786.
 Iteration    1 A^-1*A deviation from unit magnitude is 8.77D-15 for   3504.
 Iteration    1 A^-1*A deviation from orthogonality  is 1.88D-13 for   2631   2577.
 Error on total polarization charges =  0.03528
 SCF Done:  E(RM062X) =  -1090.65615240     A.U. after   12 cycles
            NFock= 12  Conv=0.87D-08     -V/T= 2.0111
 SMD-CDS (non-electrostatic) energy       (kcal/mol) =      -1.61
 (included in total energy above)

 **********************************************************************

            Population analysis using the SCF Density.

 **********************************************************************

 Orbital symmetries:
       Occupied  (A) (A) (A) (A) (A) (A) (A) (A) (A) (A) (A) (A)
                 (A) (A) (A) (A) (A) (A) (A) (A) (A) (A) (A) (A)
                 (A) (A) (A) (A) (A) (A) (A) (A) (A) (A) (A) (A)
                 (A) (A) (A) (A) (A) (A) (A) (A) (A) (A) (A) (A)
                 (A) (A) (A) (A) (A) (A) (A) (A) (A) (A) (A) (A)
                 (A) (A) (A) (A) (A) (A) (A) (A) (A) (A) (A) (A)
                 (A) (A) (A) (A) (A) (A) (A) (A) (A) (A) (A) (A)
                 (A) (A) (A) (A) (A) (A) (A)
       Virtual   (A) (A) (A) (A) (A) (A) (A) (A) (A) (A) (A) (A)
                 (A) (A) (A) (A) (A) (A) (A) (A) (A) (A) (A) (A)
                 (A) (A) (A) (A) (A) (A) (A) (A) (A) (A) (A) (A)
                 (A) (A) (A) (A) (A) (A) (A) (A) (A) (A) (A) (A)
                 (A) (A) (A) (A) (A) (A) (A) (A) (A) (A) (A) (A)
                 (A) (A) (A) (A) (A) (A) (A) (A) (A) (A) (A) (A)
                 (A) (A) (A) (A) (A) (A) (A) (A) (A) (A) (A) (A)
                 (A) (A) (A) (A) (A) (A) (A) (A) (A) (A) (A) (A)
                 (A) (A) (A) (A) (A) (A) (A) (A) (A) (A) (A) (A)
                 (A) (A) (A) (A) (A) (A) (A) (A) (A) (A) (A) (A)
                 (A) (A) (A) (A) (A) (A) (A) (A) (A) (A) (A) (A)
                 (A) (A) (A) (A) (A) (A) (A) (A) (A) (A) (A) (A)
                 (A) (A) (A) (A) (A) (A) (A) (A) (A) (A) (A) (A)
                 (A) (A) (A) (A) (A) (A) (A) (A) (A) (A) (A) (A)
                 (A) (A) (A) (A) (A) (A) (A) (A) (A) (A) (A) (A)
                 (A) (A) (A) (A) (A) (A) (A) (A) (A) (A) (A) (A)
                 (A) (A) (A) (A) (A) (A) (A) (A) (A) (A) (A) (A)
                 (A) (A) (A) (A) (A) (A) (A) (A) (A) (A) (A) (A)
                 (A) (A) (A) (A) (A) (A) (A) (A) (A) (A) (A) (A)
                 (A) (A) (A) (A) (A) (A) (A) (A) (A) (A) (A) (A)
                 (A) (A) (A) (A) (A) (A) (A) (A) (A) (A) (A) (A)
                 (A) (A) (A) (A) (A) (A) (A) (A) (A) (A) (A) (A)
                 (A) (A) (A) (A) (A) (A) (A) (A) (A) (A) (A) (A)
                 (A) (A) (A) (A) (A) (A) (A) (A) (A) (A) (A) (A)
                 (A) (A) (A) (A) (A) (A) (A) (A) (A) (A) (A) (A)
                 (A) (A) (A) (A) (A) (A) (A) (A) (A) (A) (A) (A)
                 (A) (A) (A) (A) (A) (A) (A) (A) (A) (A) (A) (A)
                 (A) (A) (A) (A) (A) (A) (A) (A) (A) (A) (A) (A)
                 (A) (A) (A) (A) (A) (A) (A) (A) (A) (A) (A) (A)
                 (A) (A) (A) (A) (A) (A) (A) (A) (A) (A) (A) (A)
                 (A) (A) (A) (A) (A) (A) (A) (A) (A) (A) (A) (A)
                 (A) (A) (A) (A) (A) (A) (A) (A) (A) (A) (A) (A)
 The electronic state is 1-A.
 Alpha  occ. eigenvalues --  -19.64447 -19.63510 -14.83474 -14.78768 -14.68776
 Alpha  occ. eigenvalues --  -10.70515 -10.69595 -10.63931 -10.61185 -10.60547
 Alpha  occ. eigenvalues --  -10.60455 -10.60283 -10.60257 -10.60060 -10.59985
 Alpha  occ. eigenvalues --  -10.59009 -10.58463 -10.57491 -10.56211 -10.56041
 Alpha  occ. eigenvalues --  -10.55675 -10.54767 -10.54286 -10.52519 -10.52377
 Alpha  occ. eigenvalues --   -1.18549  -1.16219  -1.05744  -1.04968  -0.99843
 Alpha  occ. eigenvalues --   -0.96564  -0.94529  -0.91343  -0.88678  -0.86626
 Alpha  occ. eigenvalues --   -0.85038  -0.82825  -0.80421  -0.77512  -0.75295
 Alpha  occ. eigenvalues --   -0.74669  -0.73334  -0.72966  -0.70741  -0.69087
 Alpha  occ. eigenvalues --   -0.66724  -0.65626  -0.61805  -0.61477  -0.60852
 Alpha  occ. eigenvalues --   -0.59602  -0.58092  -0.57807  -0.56383  -0.55550
 Alpha  occ. eigenvalues --   -0.54440  -0.53856  -0.53354  -0.52181  -0.52081
 Alpha  occ. eigenvalues --   -0.50872  -0.50540  -0.49757  -0.49575  -0.48876
 Alpha  occ. eigenvalues --   -0.48706  -0.48665  -0.47960  -0.47126  -0.45630
 Alpha  occ. eigenvalues --   -0.45403  -0.44873  -0.43551  -0.42441  -0.42111
 Alpha  occ. eigenvalues --   -0.41788  -0.41256  -0.40717  -0.39733  -0.39679
 Alpha  occ. eigenvalues --   -0.39357  -0.38928  -0.37917  -0.37866  -0.37736
 Alpha  occ. eigenvalues --   -0.36624  -0.35203  -0.33780  -0.33150  -0.26954
 Alpha  occ. eigenvalues --   -0.19836
 Alpha virt. eigenvalues --   -0.08670  -0.01677  -0.01266   0.02651   0.09192
 Alpha virt. eigenvalues --    0.09825   0.11156   0.11406   0.11787   0.12108
 Alpha virt. eigenvalues --    0.12367   0.13069   0.13317   0.14428   0.15694
 Alpha virt. eigenvalues --    0.16409   0.16456   0.17089   0.17179   0.18063
 Alpha virt. eigenvalues --    0.18666   0.19023   0.19071   0.20079   0.20592
 Alpha virt. eigenvalues --    0.20879   0.20923   0.21709   0.22369   0.22961
 Alpha virt. eigenvalues --    0.23058   0.23833   0.24252   0.24430   0.24690
 Alpha virt. eigenvalues --    0.25007   0.25654   0.26016   0.26345   0.26877
 Alpha virt. eigenvalues --    0.27043   0.28033   0.28829   0.29221   0.29578
 Alpha virt. eigenvalues --    0.29891   0.31239   0.31511   0.32711   0.34001
 Alpha virt. eigenvalues --    0.35011   0.35170   0.35880   0.36520   0.37219
 Alpha virt. eigenvalues --    0.38310   0.39372   0.41391   0.43150   0.44373
 Alpha virt. eigenvalues --    0.45023   0.45319   0.46402   0.46877   0.47252
 Alpha virt. eigenvalues --    0.47818   0.48208   0.48782   0.49195   0.49692
 Alpha virt. eigenvalues --    0.49968   0.50623   0.51085   0.52272   0.52829
 Alpha virt. eigenvalues --    0.53076   0.54525   0.54713   0.56410   0.56897
 Alpha virt. eigenvalues --    0.57238   0.57723   0.58561   0.59363   0.60692
 Alpha virt. eigenvalues --    0.60943   0.62207   0.62711   0.63451   0.64245
 Alpha virt. eigenvalues --    0.64746   0.65308   0.66238   0.67095   0.67340
 Alpha virt. eigenvalues --    0.68165   0.68271   0.68833   0.69467   0.69660
 Alpha virt. eigenvalues --    0.69885   0.70245   0.70488   0.71162   0.71641
 Alpha virt. eigenvalues --    0.72036   0.72316   0.72672   0.72831   0.73296
 Alpha virt. eigenvalues --    0.73351   0.73681   0.73973   0.74226   0.74490
 Alpha virt. eigenvalues --    0.75113   0.75185   0.75423   0.75787   0.76313
 Alpha virt. eigenvalues --    0.76740   0.76929   0.77314   0.77638   0.77946
 Alpha virt. eigenvalues --    0.78462   0.78685   0.78805   0.79117   0.79552
 Alpha virt. eigenvalues --    0.79773   0.80519   0.81239   0.81696   0.82337
 Alpha virt. eigenvalues --    0.83724   0.83750   0.86013   0.86959   0.87186
 Alpha virt. eigenvalues --    0.87655   0.89400   0.90918   0.91435   0.92961
 Alpha virt. eigenvalues --    0.93498   0.95443   0.96784   0.97661   0.98963
 Alpha virt. eigenvalues --    1.00789   1.01618   1.03122   1.05010   1.06135
 Alpha virt. eigenvalues --    1.06988   1.07764   1.10468   1.12622   1.12857
 Alpha virt. eigenvalues --    1.13845   1.14541   1.15850   1.16358   1.18280
 Alpha virt. eigenvalues --    1.19701   1.20905   1.22049   1.22597   1.22839
 Alpha virt. eigenvalues --    1.23907   1.24185   1.24545   1.24676   1.25745
 Alpha virt. eigenvalues --    1.27083   1.27596   1.28044   1.29071   1.29954
 Alpha virt. eigenvalues --    1.31171   1.32052   1.32720   1.34645   1.35322
 Alpha virt. eigenvalues --    1.36946   1.37898   1.38056   1.39888   1.40788
 Alpha virt. eigenvalues --    1.42195   1.43000   1.43431   1.45246   1.46643
 Alpha virt. eigenvalues --    1.49282   1.50077   1.50753   1.52408   1.53260
 Alpha virt. eigenvalues --    1.53299   1.55351   1.56558   1.58713   1.59397
 Alpha virt. eigenvalues --    1.59495   1.61956   1.62571   1.62681   1.63600
 Alpha virt. eigenvalues --    1.66939   1.68036   1.68927   1.70702   1.72179
 Alpha virt. eigenvalues --    1.72662   1.73052   1.73232   1.74201   1.75180
 Alpha virt. eigenvalues --    1.75812   1.76415   1.76803   1.77641   1.77964
 Alpha virt. eigenvalues --    1.78584   1.79345   1.79776   1.80269   1.80795
 Alpha virt. eigenvalues --    1.81377   1.82079   1.82758   1.83149   1.83563
 Alpha virt. eigenvalues --    1.83780   1.85224   1.85556   1.86041   1.86621
 Alpha virt. eigenvalues --    1.87118   1.87586   1.88506   1.88716   1.89487
 Alpha virt. eigenvalues --    1.90326   1.90658   1.91737   1.92085   1.93058
 Alpha virt. eigenvalues --    1.93352   1.94262   1.94858   1.95380   1.95625
 Alpha virt. eigenvalues --    1.96056   1.96412   1.96815   1.97144   1.97946
 Alpha virt. eigenvalues --    1.98332   1.98817   1.99771   1.99930   2.00843
 Alpha virt. eigenvalues --    2.02919   2.03118   2.03880   2.05134   2.05868
 Alpha virt. eigenvalues --    2.06142   2.07316   2.07559   2.08716   2.09387
 Alpha virt. eigenvalues --    2.10612   2.11011   2.11358   2.12596   2.13644
 Alpha virt. eigenvalues --    2.15075   2.15997   2.16632   2.17735   2.18164
 Alpha virt. eigenvalues --    2.19221   2.21394   2.21532   2.23308   2.23967
 Alpha virt. eigenvalues --    2.24370   2.25598   2.26355   2.26893   2.29002
 Alpha virt. eigenvalues --    2.30740   2.31115   2.32083   2.33860   2.34584
 Alpha virt. eigenvalues --    2.36023   2.36837   2.37578   2.38777   2.40890
 Alpha virt. eigenvalues --    2.41720   2.43014   2.44257   2.44335   2.45470
 Alpha virt. eigenvalues --    2.46486   2.47795   2.49606   2.50338   2.50514
 Alpha virt. eigenvalues --    2.51248   2.51554   2.52930   2.53984   2.55616
 Alpha virt. eigenvalues --    2.56807   2.57168   2.58668   2.60006   2.60806
 Alpha virt. eigenvalues --    2.61381   2.61796   2.64336   2.64775   2.66175
 Alpha virt. eigenvalues --    2.69014   2.69309   2.70920   2.71843   2.72981
 Alpha virt. eigenvalues --    2.73997   2.74991   2.75239   2.75412   2.76599
 Alpha virt. eigenvalues --    2.80268   2.80549   2.82346   2.82687   2.83358
 Alpha virt. eigenvalues --    2.84491   2.85412   2.87395   2.87750   2.88335
 Alpha virt. eigenvalues --    2.89410   2.90002   2.92115   2.93678   2.93912
 Alpha virt. eigenvalues --    2.95376   2.97467   2.98028   3.00239   3.00592
 Alpha virt. eigenvalues --    3.01213   3.02558   3.02968   3.03783   3.04596
 Alpha virt. eigenvalues --    3.06061   3.08026   3.08645   3.08929   3.09929
 Alpha virt. eigenvalues --    3.12626   3.13205   3.17078   3.18843   3.25697
 Alpha virt. eigenvalues --    3.27981   3.31982   3.37705   3.41036   3.47047
 Alpha virt. eigenvalues --    3.49928   3.61286   3.65486   3.69283
          Condensed to atoms (all electrons):
               1          2          3          4          5          6
     1  O    7.832847  -0.000068  -0.000030  -0.000020  -0.000000  -0.000000
     2  C   -0.000068   5.555491   0.190891  -0.000089  -0.107151  -0.026343
     3  C   -0.000030   0.190891   5.258176   0.000001   0.476160  -0.008641
     4  O   -0.000020  -0.000089   0.000001   7.831856   0.000000   0.000000
     5  N   -0.000000  -0.107151   0.476160   0.000000   6.424737   0.342108
     6  H   -0.000000  -0.026343  -0.008641   0.000000   0.342108   0.506943
     7  C   -0.146662  -0.009527  -0.170012   0.000257  -0.000429  -0.000157
     8  N   -0.110632  -0.001511  -0.000042  -0.108577  -0.000000   0.000000
     9  C    0.000731   0.283872   0.006867   0.000793   0.005606   0.000342
    10  C    0.001928   0.025325   0.216267  -0.000000  -0.105919   0.007812
    11  H   -0.000022   0.015159  -0.074098  -0.000000  -0.015450  -0.000007
    12  C    0.000223   0.000653   0.027144  -0.140862  -0.000077   0.000043
    13  C    0.000008  -0.131077  -0.003319   0.015902  -0.000029  -0.000039
    14  H    0.000000  -0.001052   0.000040   0.013408   0.000000  -0.000000
    15  C   -0.000000   0.073814   0.018456   0.001694   0.001168  -0.000297
    16  H    0.000000   0.013649  -0.000322  -0.000014  -0.000003   0.000046
    17  C   -0.000647   0.014668   0.000330   0.734473   0.000000   0.000000
    18  C    0.000001   0.263878  -0.129157  -0.000036  -0.000256   0.007317
    19  H   -0.000000  -0.060939  -0.022292   0.000000   0.005669  -0.004931
    20  C    0.742810   0.011736  -0.001275  -0.000749   0.000013  -0.000000
    21  C    0.000000   0.009685  -0.049101   0.000000   0.297042  -0.041224
    22  H    0.000000  -0.000292  -0.022624   0.000000  -0.014030   0.009756
    23  H    0.000000  -0.000427  -0.002378  -0.000000  -0.035419  -0.006923
    24  C    0.004162   0.000082   0.000000  -0.001696   0.000000   0.000000
    25  H    0.012405   0.000001   0.000000   0.000563   0.000000   0.000000
    26  H    0.000559   0.000002  -0.000000   0.017511   0.000000  -0.000000
    27  C    0.017639  -0.121606   0.142303   0.000009   0.008096   0.000282
    28  H    0.013571  -0.001315   0.014775   0.000000  -0.000077   0.000005
    29  C    0.000000  -0.000106   0.007318   0.000000  -0.044065  -0.008830
    30  C   -0.010168  -0.000004  -0.000000  -0.005390   0.000000  -0.000000
    31  H    0.000063   0.000000  -0.000000  -0.000070  -0.000000  -0.000000
    32  H    0.011754   0.000001   0.000000  -0.000048  -0.000000  -0.000000
    33  C    0.000120   0.000001  -0.000000   0.002294  -0.000000   0.000000
    34  H   -0.000012   0.000000  -0.000000   0.003835   0.000000   0.000000
    35  H    0.000019  -0.000003  -0.000000  -0.002142  -0.000000   0.000000
    36  C   -0.000002   0.000000  -0.000000   0.000127   0.000000   0.000000
    37  H   -0.000017  -0.000000  -0.000000  -0.000003   0.000000   0.000000
    38  H    0.000000   0.000000  -0.000000  -0.000003  -0.000000  -0.000000
    39  H   -0.000000  -0.000000   0.000000  -0.000003  -0.000000  -0.000000
    40  H   -0.000000   0.000024  -0.000375   0.000000   0.005081   0.001308
    41  N   -0.000000   0.000167  -0.001629  -0.000000  -0.004490   0.029177
    42  H   -0.000000  -0.000066   0.000633   0.000000  -0.000298  -0.001126
    43  C   -0.000000  -0.000000  -0.000006   0.000000  -0.000670  -0.000619
    44  H   -0.000000   0.000003  -0.000045  -0.000000   0.000118   0.000274
    45  H    0.000000   0.000001  -0.000007  -0.000000  -0.000010   0.000336
    46  H   -0.000000  -0.000060   0.000292   0.000000   0.000526  -0.003434
    47  C    0.000000   0.000061  -0.000119   0.000000  -0.000098   0.000764
    48  H   -0.000000  -0.000344   0.000620  -0.000000   0.003528  -0.008806
    49  H   -0.000000  -0.000003   0.000004   0.000000  -0.000045  -0.000116
    50  H   -0.000000   0.000004  -0.000021   0.000000   0.000000   0.000917
               7          8          9         10         11         12
     1  O   -0.146662  -0.110632   0.000731   0.001928  -0.000022   0.000223
     2  C   -0.009527  -0.001511   0.283872   0.025325   0.015159   0.000653
     3  C   -0.170012  -0.000042   0.006867   0.216267  -0.074098   0.027144
     4  O    0.000257  -0.108577   0.000793  -0.000000  -0.000000  -0.140862
     5  N   -0.000429  -0.000000   0.005606  -0.105919  -0.015450  -0.000077
     6  H   -0.000157   0.000000   0.000342   0.007812  -0.000007   0.000043
     7  C    5.921280  -0.123442   0.293485   0.086773   0.016229  -0.078905
     8  N   -0.123442   7.111641  -0.020438   0.000041   0.000000  -0.119245
     9  C    0.293485  -0.020438   5.281676  -0.117098  -0.001736   0.307129
    10  C    0.086773   0.000041  -0.117098   5.356851   0.479359  -0.003317
    11  H    0.016229   0.000000  -0.001736   0.479359   0.605531   0.000022
    12  C   -0.078905  -0.119245   0.307129  -0.003317   0.000022   5.816996
    13  C    0.013360   0.010449   0.030259   0.000153   0.000000   0.256915
    14  H   -0.000372   0.000980   0.012210   0.000000   0.000000  -0.080066
    15  C   -0.003193   0.000009  -0.129196  -0.000373   0.000002   0.082721
    16  H    0.000040   0.000001  -0.000904   0.000002  -0.000000   0.013656
    17  C   -0.041062   0.307558  -0.070878  -0.000322   0.000001   0.190168
    18  C    0.023119  -0.000018   0.019783   0.016953  -0.000080  -0.148291
    19  H   -0.000011  -0.000000   0.012244   0.000107   0.000010  -0.001478
    20  C    0.202411   0.294634  -0.071457   0.020586  -0.000429  -0.033822
    21  C    0.000029   0.000000  -0.000172   0.000732   0.008103   0.000004
    22  H   -0.000108   0.000000   0.000065   0.006993  -0.000634   0.000001
    23  H   -0.000025   0.000000  -0.000046   0.002638  -0.000037  -0.000001
    24  C    0.010738   0.220820  -0.000245  -0.000000  -0.000000   0.008527
    25  H    0.003524  -0.025407  -0.000152  -0.000003   0.000000  -0.000507
    26  H   -0.000363  -0.027911  -0.000240   0.000000   0.000000   0.004911
    27  C    0.196232   0.011069   0.036139   0.176613  -0.077557   0.013963
    28  H   -0.090034   0.001039   0.012357  -0.062085  -0.011334  -0.000447
    29  C    0.000002   0.000000   0.000005   0.000703   0.000315  -0.000000
    30  C   -0.001732  -0.037398   0.000201   0.000000  -0.000000  -0.001327
    31  H    0.000004   0.005223   0.000001   0.000000  -0.000000   0.000022
    32  H    0.000179  -0.011087  -0.000066  -0.000000   0.000000   0.000095
    33  C    0.000100  -0.006655   0.000004  -0.000000   0.000000  -0.000016
    34  H    0.000002  -0.001594  -0.000015   0.000000  -0.000000   0.000189
    35  H   -0.000229   0.005001   0.000196   0.000000  -0.000000   0.000162
    36  C   -0.000003  -0.000218  -0.000001   0.000000  -0.000000   0.000016
    37  H   -0.000000   0.000031   0.000000  -0.000000   0.000000  -0.000001
    38  H   -0.000000  -0.000001   0.000000   0.000000   0.000000  -0.000000
    39  H    0.000000   0.000008  -0.000000   0.000000   0.000000  -0.000000
    40  H   -0.000000   0.000000   0.000000  -0.000044   0.000003   0.000000
    41  N   -0.000000   0.000000   0.000001  -0.000028  -0.000000   0.000000
    42  H    0.000000  -0.000000  -0.000002  -0.000142   0.000029  -0.000000
    43  C   -0.000000  -0.000000  -0.000000  -0.000009  -0.000005  -0.000000
    44  H   -0.000000   0.000000   0.000000  -0.000004  -0.000007   0.000000
    45  H   -0.000000   0.000000   0.000000  -0.000000   0.000000   0.000000
    46  H    0.000000  -0.000000  -0.000001   0.000010  -0.000000  -0.000000
    47  C    0.000000   0.000000   0.000000  -0.000008  -0.000001  -0.000000
    48  H    0.000000  -0.000000  -0.000004   0.000004  -0.000001  -0.000000
    49  H   -0.000000  -0.000000  -0.000000   0.000000   0.000000   0.000000
    50  H   -0.000000   0.000000   0.000000  -0.000000   0.000000   0.000000
              13         14         15         16         17         18
     1  O    0.000008   0.000000  -0.000000   0.000000  -0.000647   0.000001
     2  C   -0.131077  -0.001052   0.073814   0.013649   0.014668   0.263878
     3  C   -0.003319   0.000040   0.018456  -0.000322   0.000330  -0.129157
     4  O    0.015902   0.013408   0.001694  -0.000014   0.734473  -0.000036
     5  N   -0.000029   0.000000   0.001168  -0.000003   0.000000  -0.000256
     6  H   -0.000039  -0.000000  -0.000297   0.000046   0.000000   0.007317
     7  C    0.013360  -0.000372  -0.003193   0.000040  -0.041062   0.023119
     8  N    0.010449   0.000980   0.000009   0.000001   0.307558  -0.000018
     9  C    0.030259   0.012210  -0.129196  -0.000904  -0.070878   0.019783
    10  C    0.000153   0.000000  -0.000373   0.000002  -0.000322   0.016953
    11  H    0.000000   0.000000   0.000002  -0.000000   0.000001  -0.000080
    12  C    0.256915  -0.080066   0.082721   0.013656   0.190168  -0.148291
    13  C    5.194833   0.465961   0.206089  -0.074112  -0.073486   0.098858
    14  H    0.465961   0.614009  -0.064272  -0.010101  -0.013169   0.012801
    15  C    0.206089  -0.064272   5.147551   0.460549   0.021846   0.273905
    16  H   -0.074112  -0.010101   0.460549   0.603888  -0.000396  -0.062767
    17  C   -0.073486  -0.013169   0.021846  -0.000396   4.722395  -0.002944
    18  C    0.098858   0.012801   0.273905  -0.062767  -0.002944   5.233640
    19  H    0.012680  -0.000167  -0.051885  -0.010767   0.000028   0.455426
    20  C    0.000907   0.000049  -0.000296   0.000001  -0.039051   0.000214
    21  C    0.000001   0.000000  -0.000010  -0.000000  -0.000000   0.000132
    22  H   -0.000000   0.000000  -0.000001   0.000000   0.000000  -0.000122
    23  H   -0.000000   0.000000   0.000006  -0.000000   0.000000   0.000184
    24  C   -0.000303  -0.000025   0.000001  -0.000000  -0.021941  -0.000000
    25  H    0.000008  -0.000001   0.000000   0.000000   0.004311  -0.000000
    26  H   -0.000019  -0.000004  -0.000004  -0.000000  -0.008413   0.000001
    27  C   -0.000364   0.000001   0.000180   0.000000   0.000848  -0.003512
    28  H    0.000002  -0.000000   0.000001   0.000000   0.000057   0.000028
    29  C    0.000000  -0.000000  -0.000001  -0.000000   0.000000  -0.000060
    30  C    0.000029   0.000006   0.000000   0.000000  -0.006115  -0.000000
    31  H   -0.000000   0.000000   0.000000  -0.000000   0.000255   0.000000
    32  H    0.000001   0.000000  -0.000000  -0.000000  -0.001012  -0.000000
    33  C   -0.000041  -0.000012  -0.000000   0.000000   0.007513   0.000000
    34  H    0.000006   0.000000  -0.000000  -0.000000   0.000295   0.000000
    35  H    0.000016   0.000023  -0.000001  -0.000000   0.004961   0.000000
    36  C    0.000000  -0.000000  -0.000000   0.000000  -0.000027   0.000000
    37  H    0.000000   0.000000   0.000000  -0.000000  -0.000010  -0.000000
    38  H   -0.000000   0.000000   0.000000  -0.000000   0.000008  -0.000000
    39  H   -0.000000  -0.000000   0.000000  -0.000000   0.000006  -0.000000
    40  H    0.000000   0.000000  -0.000000   0.000000  -0.000000  -0.000003
    41  N   -0.000000   0.000000  -0.000002   0.000000  -0.000000  -0.000073
    42  H    0.000000   0.000000   0.000001  -0.000000  -0.000000   0.000025
    43  C    0.000000   0.000000   0.000000  -0.000000   0.000000   0.000000
    44  H   -0.000000  -0.000000  -0.000000   0.000000  -0.000000  -0.000000
    45  H   -0.000000  -0.000000  -0.000000   0.000000  -0.000000  -0.000000
    46  H    0.000000  -0.000000   0.000002  -0.000000   0.000000   0.000013
    47  C    0.000000   0.000000  -0.000005  -0.000001  -0.000000  -0.000146
    48  H    0.000000  -0.000000   0.000095  -0.000001  -0.000000  -0.000553
    49  H   -0.000000   0.000000   0.000000  -0.000000   0.000000   0.000006
    50  H   -0.000000  -0.000000  -0.000000   0.000000  -0.000000   0.000005
              19         20         21         22         23         24
     1  O   -0.000000   0.742810   0.000000   0.000000   0.000000   0.004162
     2  C   -0.060939   0.011736   0.009685  -0.000292  -0.000427   0.000082
     3  C   -0.022292  -0.001275  -0.049101  -0.022624  -0.002378   0.000000
     4  O    0.000000  -0.000749   0.000000   0.000000  -0.000000  -0.001696
     5  N    0.005669   0.000013   0.297042  -0.014030  -0.035419   0.000000
     6  H   -0.004931  -0.000000  -0.041224   0.009756  -0.006923   0.000000
     7  C   -0.000011   0.202411   0.000029  -0.000108  -0.000025   0.010738
     8  N   -0.000000   0.294634   0.000000   0.000000   0.000000   0.220820
     9  C    0.012244  -0.071457  -0.000172   0.000065  -0.000046  -0.000245
    10  C    0.000107   0.020586   0.000732   0.006993   0.002638  -0.000000
    11  H    0.000010  -0.000429   0.008103  -0.000634  -0.000037  -0.000000
    12  C   -0.001478  -0.033822   0.000004   0.000001  -0.000001   0.008527
    13  C    0.012680   0.000907   0.000001  -0.000000  -0.000000  -0.000303
    14  H   -0.000167   0.000049   0.000000   0.000000   0.000000  -0.000025
    15  C   -0.051885  -0.000296  -0.000010  -0.000001   0.000006   0.000001
    16  H   -0.010767   0.000001  -0.000000   0.000000  -0.000000  -0.000000
    17  C    0.000028  -0.039051  -0.000000   0.000000   0.000000  -0.021941
    18  C    0.455426   0.000214   0.000132  -0.000122   0.000184  -0.000000
    19  H    0.587046   0.000002   0.000368  -0.000152   0.000153   0.000000
    20  C    0.000002   4.717089   0.000000   0.000000   0.000000  -0.023863
    21  C    0.000368   0.000000   4.774916   0.359409   0.390264  -0.000000
    22  H   -0.000152   0.000000   0.359409   0.639755  -0.034959   0.000000
    23  H    0.000153   0.000000   0.390264  -0.034959   0.635251   0.000000
    24  C    0.000000  -0.023863  -0.000000   0.000000   0.000000   4.612165
    25  H   -0.000000  -0.006575  -0.000000   0.000000  -0.000000   0.372098
    26  H    0.000000   0.005444  -0.000000  -0.000000   0.000000   0.378540
    27  C   -0.000125  -0.067292   0.000512   0.001947  -0.000145  -0.000372
    28  H    0.000000  -0.012163  -0.000020   0.000023   0.000012  -0.000040
    29  C    0.000081   0.000000   0.388994  -0.013041  -0.010865  -0.000000
    30  C   -0.000000  -0.006343   0.000000   0.000000  -0.000000   0.404517
    31  H    0.000000  -0.000025  -0.000000  -0.000000   0.000000  -0.024955
    32  H    0.000000   0.005734  -0.000000  -0.000000   0.000000  -0.013637
    33  C    0.000000  -0.000070  -0.000000  -0.000000   0.000000  -0.048951
    34  H   -0.000000  -0.000024   0.000000   0.000000  -0.000000   0.000715
    35  H   -0.000000   0.000372  -0.000000  -0.000000  -0.000000  -0.014001
    36  C   -0.000000  -0.000056   0.000000   0.000000  -0.000000   0.009326
    37  H   -0.000000  -0.000009   0.000000   0.000000  -0.000000   0.000358
    38  H    0.000000   0.000001  -0.000000  -0.000000   0.000000   0.000153
    39  H    0.000000   0.000001  -0.000000  -0.000000   0.000000  -0.000445
    40  H   -0.000012  -0.000000  -0.047516   0.002475  -0.006774  -0.000000
    41  N   -0.000655  -0.000000  -0.093572   0.007550  -0.010593   0.000000
    42  H    0.000100   0.000000  -0.033187  -0.007499   0.007501   0.000000
    43  C    0.000012   0.000000  -0.003207  -0.000207   0.007223  -0.000000
    44  H   -0.000003  -0.000000  -0.007383   0.000223   0.002550  -0.000000
    45  H   -0.000005  -0.000000  -0.001080   0.000064  -0.000304  -0.000000
    46  H    0.000107   0.000000   0.006682  -0.000283  -0.000460   0.000000
    47  C    0.000399  -0.000000  -0.000675  -0.000141  -0.000071  -0.000000
    48  H    0.003385   0.000000   0.004134  -0.000573   0.000349   0.000000
    49  H    0.000003   0.000000  -0.000211   0.000011   0.000025   0.000000
    50  H   -0.000105   0.000000  -0.001655   0.000140  -0.000062   0.000000
              25         26         27         28         29         30
     1  O    0.012405   0.000559   0.017639   0.013571   0.000000  -0.010168
     2  C    0.000001   0.000002  -0.121606  -0.001315  -0.000106  -0.000004
     3  C    0.000000  -0.000000   0.142303   0.014775   0.007318  -0.000000
     4  O    0.000563   0.017511   0.000009   0.000000   0.000000  -0.005390
     5  N    0.000000   0.000000   0.008096  -0.000077  -0.044065   0.000000
     6  H    0.000000  -0.000000   0.000282   0.000005  -0.008830  -0.000000
     7  C    0.003524  -0.000363   0.196232  -0.090034   0.000002  -0.001732
     8  N   -0.025407  -0.027911   0.011069   0.001039   0.000000  -0.037398
     9  C   -0.000152  -0.000240   0.036139   0.012357   0.000005   0.000201
    10  C   -0.000003   0.000000   0.176613  -0.062085   0.000703   0.000000
    11  H    0.000000   0.000000  -0.077557  -0.011334   0.000315  -0.000000
    12  C   -0.000507   0.004911   0.013963  -0.000447  -0.000000  -0.001327
    13  C    0.000008  -0.000019  -0.000364   0.000002   0.000000   0.000029
    14  H   -0.000001  -0.000004   0.000001  -0.000000  -0.000000   0.000006
    15  C    0.000000  -0.000004   0.000180   0.000001  -0.000001   0.000000
    16  H    0.000000  -0.000000   0.000000   0.000000  -0.000000   0.000000
    17  C    0.004311  -0.008413   0.000848   0.000057   0.000000  -0.006115
    18  C   -0.000000   0.000001  -0.003512   0.000028  -0.000060  -0.000000
    19  H   -0.000000   0.000000  -0.000125   0.000000   0.000081  -0.000000
    20  C   -0.006575   0.005444  -0.067292  -0.012163   0.000000  -0.006343
    21  C   -0.000000  -0.000000   0.000512  -0.000020   0.388994   0.000000
    22  H    0.000000  -0.000000   0.001947   0.000023  -0.013041   0.000000
    23  H   -0.000000   0.000000  -0.000145   0.000012  -0.010865  -0.000000
    24  C    0.372098   0.378540  -0.000372  -0.000040  -0.000000   0.404517
    25  H    0.620201  -0.020194  -0.000005  -0.000002  -0.000000  -0.013320
    26  H   -0.020194   0.614624   0.000006  -0.000001   0.000000  -0.017991
    27  C   -0.000005   0.000006   5.223529   0.470252  -0.000022   0.000031
    28  H   -0.000002  -0.000001   0.470252   0.616586  -0.000000   0.000009
    29  C   -0.000000   0.000000  -0.000022  -0.000000   4.484621   0.000000
    30  C   -0.013320  -0.017991   0.000031   0.000009   0.000000   4.749266
    31  H   -0.003725  -0.004637  -0.000001  -0.000000   0.000000   0.386378
    32  H   -0.009617   0.007095  -0.000004  -0.000015   0.000000   0.374477
    33  C    0.007954  -0.010291  -0.000002   0.000000  -0.000000   0.386960
    34  H   -0.000147   0.005668   0.000000   0.000000  -0.000000  -0.034444
    35  H    0.000024  -0.000840  -0.000008  -0.000000  -0.000000  -0.018382
    36  C   -0.000342   0.000261   0.000000  -0.000000  -0.000000  -0.058270
    37  H    0.000004   0.000016  -0.000000   0.000000  -0.000000  -0.007073
    38  H   -0.000011  -0.000042  -0.000000  -0.000000  -0.000000  -0.006754
    39  H    0.000012  -0.000000  -0.000000   0.000000   0.000000   0.007354
    40  H   -0.000000   0.000000   0.000001   0.000000   0.387414  -0.000000
    41  N   -0.000000  -0.000000   0.000001  -0.000000   0.377380   0.000000
    42  H   -0.000000   0.000000  -0.000004   0.000000   0.392673  -0.000000
    43  C    0.000000  -0.000000   0.000000   0.000000  -0.047768   0.000000
    44  H   -0.000000   0.000000   0.000000   0.000000   0.000132  -0.000000
    45  H   -0.000000   0.000000   0.000000  -0.000000   0.003184  -0.000000
    46  H    0.000000  -0.000000  -0.000001   0.000000  -0.000034   0.000000
    47  C    0.000000  -0.000000   0.000000  -0.000000  -0.039217   0.000000
    48  H   -0.000000   0.000000  -0.000001   0.000000   0.003982  -0.000000
    49  H    0.000000   0.000000   0.000000   0.000000   0.006361  -0.000000
    50  H   -0.000000   0.000000   0.000000  -0.000000  -0.009689  -0.000000
              31         32         33         34         35         36
     1  O    0.000063   0.011754   0.000120  -0.000012   0.000019  -0.000002
     2  C    0.000000   0.000001   0.000001   0.000000  -0.000003   0.000000
     3  C   -0.000000   0.000000  -0.000000  -0.000000  -0.000000  -0.000000
     4  O   -0.000070  -0.000048   0.002294   0.003835  -0.002142   0.000127
     5  N   -0.000000  -0.000000  -0.000000   0.000000  -0.000000   0.000000
     6  H   -0.000000  -0.000000   0.000000   0.000000   0.000000   0.000000
     7  C    0.000004   0.000179   0.000100   0.000002  -0.000229  -0.000003
     8  N    0.005223  -0.011087  -0.006655  -0.001594   0.005001  -0.000218
     9  C    0.000001  -0.000066   0.000004  -0.000015   0.000196  -0.000001
    10  C    0.000000  -0.000000  -0.000000   0.000000   0.000000   0.000000
    11  H   -0.000000   0.000000   0.000000  -0.000000  -0.000000  -0.000000
    12  C    0.000022   0.000095  -0.000016   0.000189   0.000162   0.000016
    13  C   -0.000000   0.000001  -0.000041   0.000006   0.000016   0.000000
    14  H    0.000000   0.000000  -0.000012   0.000000   0.000023  -0.000000
    15  C    0.000000  -0.000000  -0.000000  -0.000000  -0.000001  -0.000000
    16  H   -0.000000  -0.000000   0.000000  -0.000000  -0.000000   0.000000
    17  C    0.000255  -0.001012   0.007513   0.000295   0.004961  -0.000027
    18  C    0.000000  -0.000000   0.000000   0.000000   0.000000   0.000000
    19  H    0.000000   0.000000   0.000000  -0.000000  -0.000000  -0.000000
    20  C   -0.000025   0.005734  -0.000070  -0.000024   0.000372  -0.000056
    21  C   -0.000000  -0.000000  -0.000000   0.000000  -0.000000   0.000000
    22  H   -0.000000  -0.000000  -0.000000   0.000000  -0.000000   0.000000
    23  H    0.000000   0.000000   0.000000  -0.000000  -0.000000  -0.000000
    24  C   -0.024955  -0.013637  -0.048951   0.000715  -0.014001   0.009326
    25  H   -0.003725  -0.009617   0.007954  -0.000147   0.000024  -0.000342
    26  H   -0.004637   0.007095  -0.010291   0.005668  -0.000840   0.000261
    27  C   -0.000001  -0.000004  -0.000002   0.000000  -0.000008   0.000000
    28  H   -0.000000  -0.000015   0.000000   0.000000  -0.000000  -0.000000
    29  C    0.000000   0.000000  -0.000000  -0.000000  -0.000000  -0.000000
    30  C    0.386378   0.374477   0.386960  -0.034444  -0.018382  -0.058270
    31  H    0.632191  -0.023575  -0.026287  -0.009163   0.008407  -0.003890
    32  H   -0.023575   0.656719  -0.035350   0.008322  -0.009251  -0.003579
    33  C   -0.026287  -0.035350   4.731987   0.384760   0.374030   0.416519
    34  H   -0.009163   0.008322   0.384760   0.668522  -0.033105  -0.023957
    35  H    0.008407  -0.009251   0.374030  -0.033105   0.677074  -0.023784
    36  C   -0.003890  -0.003579   0.416519  -0.023957  -0.023784   4.587884
    37  H   -0.001504   0.006409  -0.023271   0.007540  -0.008628   0.396197
    38  H    0.006626  -0.001450  -0.026027  -0.008469   0.007681   0.400345
    39  H   -0.000049  -0.000119  -0.016555  -0.005692  -0.005869   0.389882
    40  H    0.000000   0.000000   0.000000  -0.000000   0.000000  -0.000000
    41  N   -0.000000   0.000000   0.000000  -0.000000   0.000000  -0.000000
    42  H    0.000000   0.000000   0.000000  -0.000000   0.000000  -0.000000
    43  C   -0.000000  -0.000000  -0.000000   0.000000   0.000000   0.000000
    44  H    0.000000   0.000000  -0.000000  -0.000000   0.000000   0.000000
    45  H    0.000000   0.000000   0.000000  -0.000000   0.000000  -0.000000
    46  H   -0.000000  -0.000000   0.000000   0.000000  -0.000000   0.000000
    47  C   -0.000000  -0.000000  -0.000000   0.000000   0.000000   0.000000
    48  H    0.000000   0.000000  -0.000000  -0.000000  -0.000000  -0.000000
    49  H    0.000000   0.000000   0.000000  -0.000000  -0.000000  -0.000000
    50  H    0.000000   0.000000   0.000000  -0.000000   0.000000  -0.000000
              37         38         39         40         41         42
     1  O   -0.000017   0.000000  -0.000000  -0.000000  -0.000000  -0.000000
     2  C   -0.000000   0.000000  -0.000000   0.000024   0.000167  -0.000066
     3  C   -0.000000  -0.000000   0.000000  -0.000375  -0.001629   0.000633
     4  O   -0.000003  -0.000003  -0.000003   0.000000  -0.000000   0.000000
     5  N    0.000000  -0.000000  -0.000000   0.005081  -0.004490  -0.000298
     6  H    0.000000  -0.000000  -0.000000   0.001308   0.029177  -0.001126
     7  C   -0.000000  -0.000000   0.000000  -0.000000  -0.000000   0.000000
     8  N    0.000031  -0.000001   0.000008   0.000000   0.000000  -0.000000
     9  C    0.000000   0.000000  -0.000000   0.000000   0.000001  -0.000002
    10  C   -0.000000   0.000000   0.000000  -0.000044  -0.000028  -0.000142
    11  H    0.000000   0.000000   0.000000   0.000003  -0.000000   0.000029
    12  C   -0.000001  -0.000000  -0.000000   0.000000   0.000000  -0.000000
    13  C    0.000000  -0.000000  -0.000000   0.000000  -0.000000   0.000000
    14  H    0.000000   0.000000  -0.000000   0.000000   0.000000   0.000000
    15  C    0.000000   0.000000   0.000000  -0.000000  -0.000002   0.000001
    16  H   -0.000000  -0.000000  -0.000000   0.000000   0.000000  -0.000000
    17  C   -0.000010   0.000008   0.000006  -0.000000  -0.000000  -0.000000
    18  C   -0.000000  -0.000000  -0.000000  -0.000003  -0.000073   0.000025
    19  H   -0.000000   0.000000   0.000000  -0.000012  -0.000655   0.000100
    20  C   -0.000009   0.000001   0.000001  -0.000000  -0.000000   0.000000
    21  C    0.000000  -0.000000  -0.000000  -0.047516  -0.093572  -0.033187
    22  H    0.000000  -0.000000  -0.000000   0.002475   0.007550  -0.007499
    23  H   -0.000000   0.000000   0.000000  -0.006774  -0.010593   0.007501
    24  C    0.000358   0.000153  -0.000445  -0.000000   0.000000   0.000000
    25  H    0.000004  -0.000011   0.000012  -0.000000  -0.000000  -0.000000
    26  H    0.000016  -0.000042  -0.000000   0.000000  -0.000000   0.000000
    27  C   -0.000000  -0.000000  -0.000000   0.000001   0.000001  -0.000004
    28  H    0.000000  -0.000000   0.000000   0.000000  -0.000000   0.000000
    29  C   -0.000000  -0.000000   0.000000   0.387414   0.377380   0.392673
    30  C   -0.007073  -0.006754   0.007354  -0.000000   0.000000  -0.000000
    31  H   -0.001504   0.006626  -0.000049   0.000000  -0.000000   0.000000
    32  H    0.006409  -0.001450  -0.000119   0.000000   0.000000   0.000000
    33  C   -0.023271  -0.026027  -0.016555   0.000000   0.000000   0.000000
    34  H    0.007540  -0.008469  -0.005692  -0.000000  -0.000000  -0.000000
    35  H   -0.008628   0.007681  -0.005869   0.000000   0.000000   0.000000
    36  C    0.396197   0.400345   0.389882  -0.000000  -0.000000  -0.000000
    37  H    0.628222  -0.024743  -0.022102  -0.000000  -0.000000  -0.000000
    38  H   -0.024743   0.624537  -0.022385   0.000000   0.000000   0.000000
    39  H   -0.022102  -0.022385   0.621140   0.000000   0.000000   0.000000
    40  H   -0.000000   0.000000   0.000000   0.653297  -0.033589  -0.015719
    41  N   -0.000000   0.000000   0.000000  -0.033589   6.802597  -0.029176
    42  H   -0.000000   0.000000   0.000000  -0.015719  -0.029176   0.633326
    43  C    0.000000  -0.000000  -0.000000  -0.007501   0.345790   0.007039
    44  H   -0.000000  -0.000000   0.000000   0.005029  -0.024891   0.000258
    45  H   -0.000000   0.000000   0.000000   0.002379  -0.036070  -0.000239
    46  H    0.000000  -0.000000  -0.000000  -0.001797  -0.056787  -0.000565
    47  C    0.000000  -0.000000  -0.000000   0.004683   0.346962  -0.003477
    48  H   -0.000000   0.000000   0.000000  -0.001490  -0.058025  -0.000046
    49  H   -0.000000  -0.000000   0.000000  -0.000461  -0.022127   0.000265
    50  H   -0.000000   0.000000   0.000000   0.002834  -0.042956   0.003279
              43         44         45         46         47         48
     1  O   -0.000000  -0.000000   0.000000  -0.000000   0.000000  -0.000000
     2  C   -0.000000   0.000003   0.000001  -0.000060   0.000061  -0.000344
     3  C   -0.000006  -0.000045  -0.000007   0.000292  -0.000119   0.000620
     4  O    0.000000  -0.000000  -0.000000   0.000000   0.000000  -0.000000
     5  N   -0.000670   0.000118  -0.000010   0.000526  -0.000098   0.003528
     6  H   -0.000619   0.000274   0.000336  -0.003434   0.000764  -0.008806
     7  C   -0.000000  -0.000000  -0.000000   0.000000   0.000000   0.000000
     8  N   -0.000000   0.000000   0.000000  -0.000000   0.000000  -0.000000
     9  C   -0.000000   0.000000   0.000000  -0.000001   0.000000  -0.000004
    10  C   -0.000009  -0.000004  -0.000000   0.000010  -0.000008   0.000004
    11  H   -0.000005  -0.000007   0.000000  -0.000000  -0.000001  -0.000001
    12  C   -0.000000   0.000000   0.000000  -0.000000  -0.000000  -0.000000
    13  C    0.000000  -0.000000  -0.000000   0.000000   0.000000   0.000000
    14  H    0.000000  -0.000000  -0.000000  -0.000000   0.000000  -0.000000
    15  C    0.000000  -0.000000  -0.000000   0.000002  -0.000005   0.000095
    16  H   -0.000000   0.000000   0.000000  -0.000000  -0.000001  -0.000001
    17  C    0.000000  -0.000000  -0.000000   0.000000  -0.000000  -0.000000
    18  C    0.000000  -0.000000  -0.000000   0.000013  -0.000146  -0.000553
    19  H    0.000012  -0.000003  -0.000005   0.000107   0.000399   0.003385
    20  C    0.000000  -0.000000  -0.000000   0.000000  -0.000000   0.000000
    21  C   -0.003207  -0.007383  -0.001080   0.006682  -0.000675   0.004134
    22  H   -0.000207   0.000223   0.000064  -0.000283  -0.000141  -0.000573
    23  H    0.007223   0.002550  -0.000304  -0.000460  -0.000071   0.000349
    24  C   -0.000000  -0.000000  -0.000000   0.000000  -0.000000   0.000000
    25  H    0.000000  -0.000000  -0.000000   0.000000   0.000000  -0.000000
    26  H   -0.000000   0.000000   0.000000  -0.000000  -0.000000   0.000000
    27  C    0.000000   0.000000   0.000000  -0.000001   0.000000  -0.000001
    28  H    0.000000   0.000000  -0.000000   0.000000  -0.000000   0.000000
    29  C   -0.047768   0.000132   0.003184  -0.000034  -0.039217   0.003982
    30  C    0.000000  -0.000000  -0.000000   0.000000   0.000000  -0.000000
    31  H   -0.000000   0.000000   0.000000  -0.000000  -0.000000   0.000000
    32  H   -0.000000   0.000000   0.000000  -0.000000  -0.000000   0.000000
    33  C   -0.000000  -0.000000   0.000000   0.000000  -0.000000  -0.000000
    34  H    0.000000  -0.000000  -0.000000   0.000000   0.000000  -0.000000
    35  H    0.000000   0.000000   0.000000  -0.000000   0.000000  -0.000000
    36  C    0.000000   0.000000  -0.000000   0.000000   0.000000  -0.000000
    37  H    0.000000  -0.000000  -0.000000   0.000000   0.000000  -0.000000
    38  H   -0.000000  -0.000000   0.000000  -0.000000  -0.000000   0.000000
    39  H   -0.000000   0.000000   0.000000  -0.000000  -0.000000   0.000000
    40  H   -0.007501   0.005029   0.002379  -0.001797   0.004683  -0.001490
    41  N    0.345790  -0.024891  -0.036070  -0.056787   0.346962  -0.058025
    42  H    0.007039   0.000258  -0.000239  -0.000565  -0.003477  -0.000046
    43  C    4.467890   0.400153   0.400674   0.401085  -0.044894   0.003680
    44  H    0.400153   0.608997  -0.012814  -0.031772   0.006387  -0.000709
    45  H    0.400674  -0.012814   0.646600  -0.046938  -0.005875  -0.001668
    46  H    0.401085  -0.031772  -0.046938   0.710203  -0.002552   0.004449
    47  C   -0.044894   0.006387  -0.005875  -0.002552   4.456320   0.389253
    48  H    0.003680  -0.000709  -0.001668   0.004449   0.389253   0.715276
    49  H   -0.003856   0.000265   0.001002   0.001723   0.401608  -0.020095
    50  H    0.003120  -0.000082   0.003838  -0.001739   0.408205  -0.050191
              49         50
     1  O   -0.000000  -0.000000
     2  C   -0.000003   0.000004
     3  C    0.000004  -0.000021
     4  O    0.000000   0.000000
     5  N   -0.000045   0.000000
     6  H   -0.000116   0.000917
     7  C   -0.000000  -0.000000
     8  N   -0.000000   0.000000
     9  C   -0.000000   0.000000
    10  C    0.000000  -0.000000
    11  H    0.000000   0.000000
    12  C    0.000000   0.000000
    13  C   -0.000000  -0.000000
    14  H    0.000000  -0.000000
    15  C    0.000000  -0.000000
    16  H   -0.000000   0.000000
    17  C    0.000000  -0.000000
    18  C    0.000006   0.000005
    19  H    0.000003  -0.000105
    20  C    0.000000   0.000000
    21  C   -0.000211  -0.001655
    22  H    0.000011   0.000140
    23  H    0.000025  -0.000062
    24  C    0.000000   0.000000
    25  H    0.000000  -0.000000
    26  H    0.000000   0.000000
    27  C    0.000000   0.000000
    28  H    0.000000  -0.000000
    29  C    0.006361  -0.009689
    30  C   -0.000000  -0.000000
    31  H    0.000000   0.000000
    32  H    0.000000   0.000000
    33  C    0.000000   0.000000
    34  H   -0.000000  -0.000000
    35  H   -0.000000   0.000000
    36  C   -0.000000  -0.000000
    37  H   -0.000000  -0.000000
    38  H   -0.000000   0.000000
    39  H    0.000000   0.000000
    40  H   -0.000461   0.002834
    41  N   -0.022127  -0.042956
    42  H    0.000265   0.003279
    43  C   -0.003856   0.003120
    44  H    0.000265  -0.000082
    45  H    0.001002   0.003838
    46  H    0.001723  -0.001739
    47  C    0.401608   0.408205
    48  H   -0.020095  -0.050191
    49  H    0.602255  -0.021650
    50  H   -0.021650   0.665696
 Mulliken charges:
               1
     1  O   -0.370561
     2  C    0.002815
     3  C    0.125217
     4  O   -0.363021
     5  N   -0.241335
     6  H    0.204061
     7  C   -0.101500
     8  N   -0.374330
     9  C    0.108684
    10  C   -0.110499
    11  H    0.056635
    12  C   -0.115202
    13  C   -0.023648
    14  H    0.049752
    15  C   -0.038555
    16  H    0.067556
    17  C    0.269751
    18  C   -0.058268
    19  H    0.075705
    20  C    0.261494
    21  C    0.038005
    22  H    0.066255
    23  H    0.063330
    24  C    0.128272
    25  H    0.058905
    26  H    0.056312
    27  C   -0.028631
    28  H    0.048815
    29  C    0.120531
    30  C   -0.084518
    31  H    0.058710
    32  H    0.038025
    33  C   -0.118714
    34  H    0.036767
    35  H    0.038276
    36  C   -0.086429
    37  H    0.048584
    38  H    0.050532
    39  H    0.054819
    40  H    0.050752
    41  N   -0.494961
    42  H    0.046415
    43  C    0.072076
    44  H    0.053320
    45  H    0.046933
    46  H    0.021331
    47  C    0.082636
    48  H    0.013753
    49  H    0.055034
    50  H    0.040112
 Sum of Mulliken charges =  -0.00000
 Mulliken charges with hydrogens summed into heavy atoms:
               1
     1  O   -0.370561
     2  C    0.002815
     3  C    0.125217
     4  O   -0.363021
     5  N   -0.037274
     7  C   -0.101500
     8  N   -0.374330
     9  C    0.108684
    10  C   -0.053864
    12  C   -0.115202
    13  C    0.026104
    15  C    0.029001
    17  C    0.269751
    18  C    0.017437
    20  C    0.261494
    21  C    0.167589
    24  C    0.243490
    27  C    0.020185
    29  C    0.217698
    30  C    0.012217
    33  C   -0.043671
    36  C    0.067506
    41  N   -0.494961
    43  C    0.193660
    47  C    0.191536
 Electronic spatial extent (au):  <R**2>=          12578.3091
 Charge=             -0.0000 electrons
 Dipole moment (field-independent basis, Debye):
    X=             13.2472    Y=              0.7103    Z=              2.4111  Tot=             13.4836
 Quadrupole moment (field-independent basis, Debye-Ang):
   XX=           -126.0334   YY=           -150.5093   ZZ=           -152.1300
   XY=              0.3730   XZ=             -0.9062   YZ=             -0.3904
 Traceless Quadrupole moment (field-independent basis, Debye-Ang):
   XX=             16.8575   YY=             -7.6184   ZZ=             -9.2391
   XY=              0.3730   XZ=             -0.9062   YZ=             -0.3904
 Octapole moment (field-independent basis, Debye-Ang**2):
  XXX=            187.5025  YYY=             24.1695  ZZZ=              9.5618  XYY=             97.5458
  XXY=            -32.7553  XXZ=             38.2793  XZZ=              7.9637  YZZ=             -2.7243
  YYZ=             11.1881  XYZ=              5.8480
 Hexadecapole moment (field-independent basis, Debye-Ang**3):
 XXXX=         -12610.7767 YYYY=          -1997.2331 ZZZZ=          -1171.3246 XXXY=            108.6531
 XXXZ=            119.7251 YYYX=            -54.2373 YYYZ=             -7.9631 ZZZX=             43.9906
 ZZZY=             10.0315 XXYY=          -2713.8749 XXZZ=          -2400.1038 YYZZ=           -566.3289
 XXYZ=             26.6770 YYXZ=            -30.2113 ZZXY=             -7.4887
 N-N= 2.140195380062D+03 E-N=-6.811145795098D+03  KE= 1.078681683701D+03
 Unable to Open any file for archive entry.
 1\1\GINC-X1003C4S5B1N0\SP\RM062X\def2SVP\C20H25N3O2\1008721\15-Oct-202
 5\0\\# m062x/def2svp geom=check guess=read SCRF=(SMD, solvent=ethanol,
  NonEq=Read)\\BN-1_ethanol_m062x_m062x_m062x\\0,1\O,0,-2.833594,-2.4
 11456,-0.877022\C,0,0.993648,0.550943,-0.457905\C,0,1.88617,-0.577169,
 -0.448405\O,0,-3.60323,2.1032,-0.602339\N,0,3.259225,-0.328399,-0.3301
 62\H,0,3.453551,0.482237,0.253081\C,0,-0.915483,-1.021113,-0.671072\N,
 0,-3.188667,-0.155867,-0.7236\C,0,-0.42218,0.309266,-0.551819\C,0,1.36
 3809,-1.880023,-0.576395\H,0,2.033503,-2.740884,-0.569663\C,0,-1.33174
 4,1.41065,-0.529515\C,0,-0.831674,2.739223,-0.427537\H,0,-1.541118,3.5
 67852,-0.410495\C,0,0.536218,2.965623,-0.365114\H,0,0.913894,3.99086,-
 0.30654\C,0,-2.758009,1.182822,-0.616132\C,0,1.450112,1.898718,-0.3859
 85\H,0,2.518013,2.119108,-0.373794\C,0,-2.34355,-1.26994,-0.764982\C,0
 ,4.200505,-1.412518,-0.150869\H,0,4.060697,-2.158615,-0.946041\H,0,4.0
 74699,-1.947088,0.811793\C,0,-4.633269,-0.411515,-0.826484\H,0,-4.7741
 38,-1.196592,-1.58167\H,0,-5.093447,0.513533,-1.192988\C,0,-0.004817,-
 2.10016,-0.696143\H,0,-0.392732,-3.115585,-0.792755\C,0,5.6552,-0.9411
 29,-0.298997\C,0,-5.298629,-0.853419,0.482908\H,0,-6.354148,-1.080952,
 0.245204\H,0,-4.847621,-1.806266,0.809469\C,0,-5.248278,0.159224,1.630
 764\H,0,-5.685069,1.117045,1.297099\H,0,-4.195605,0.378996,1.882343\C,
 0,-5.972184,-0.328984,2.885574\H,0,-5.534672,-1.270019,3.261756\H,0,-7
 .040932,-0.520405,2.686364\H,0,-5.914473,0.412228,3.700084\H,0,6.31075
 7,-1.822863,-0.22913\N,0,6.071683,-0.016918,0.739456\H,0,5.802287,-0.4
 55222,-1.271066\C,0,6.134461,-0.439092,2.114691\H,0,6.037181,-1.526889
 ,2.194128\H,0,7.086483,-0.101407,2.54995\H,0,5.318431,0.05393,2.671194
 \C,0,6.364209,1.351678,0.399288\H,0,5.504461,1.779303,-0.140589\H,0,6.
 585738,1.934302,1.29976\H,0,7.226079,1.369198,-0.287695\\Version=ES64L
 -G16RevC.01\State=1-A\HF=-1090.6561524\RMSD=8.737e-09\Dipole=5.2118668
 ,0.279443,0.9485848\Quadrupole=12.5331611,-5.66409,-6.8690712,0.277325
 8,-0.673753,-0.2902332\PG=C01 [X(C20H25N3O2)]\\@
 The archive entry for this job was punched.


 WERE I TO AWAIT PERFECTION, MY BOOK WOULD NEVER BE FINISHED.
                                    -- HISTORY OF CHINESE WRITING

                                       TAI T'UNG, 13TH CENTURY
 Job cpu time:       0 days  0 hours 41 minutes  7.8 seconds.
 Elapsed time:       0 days  0 hours  1 minutes 20.8 seconds.
 File lengths (MBytes):  RWF=    898 Int=      0 D2E=      0 Chk=     44 Scr=      1
 Normal termination of Gaussian 16 at Wed Oct 15 21:14:18 2025.
