 Entering Gaussian System, Link 0=g16
 Initial command:
 /home/users/sutd/1008721/g16/l1.exe "/home/users/sutd/1008721/scratch/g16/scratch/Gau-190754.inp" -scrdir="/home/users/sutd/1008721/scratch/g16/scratch/"
 Entering Link 1 = /home/users/sutd/1008721/g16/l1.exe PID=    190755.
  
 Copyright (c) 1988-2019, Gaussian, Inc.  All Rights Reserved.
  
 This is part of the Gaussian(R) 16 program.  It is based on
 the Gaussian(R) 09 system (copyright 2009, Gaussian, Inc.),
 the Gaussian(R) 03 system (copyright 2003, Gaussian, Inc.),
 the Gaussian(R) 98 system (copyright 1998, Gaussian, Inc.),
 the Gaussian(R) 94 system (copyright 1995, Gaussian, Inc.),
 the Gaussian 92(TM) system (copyright 1992, Gaussian, Inc.),
 the Gaussian 90(TM) system (copyright 1990, Gaussian, Inc.),
 the Gaussian 88(TM) system (copyright 1988, Gaussian, Inc.),
 the Gaussian 86(TM) system (copyright 1986, Carnegie Mellon
 University), and the Gaussian 82(TM) system (copyright 1983,
 Carnegie Mellon University). Gaussian is a federally registered
 trademark of Gaussian, Inc.
  
 This software contains proprietary and confidential information,
 including trade secrets, belonging to Gaussian, Inc.
  
 This software is provided under written license and may be
 used, copied, transmitted, or stored only in accord with that
 written license.
  
 The following legend is applicable only to US Government
 contracts under FAR:
  
                    RESTRICTED RIGHTS LEGEND
  
 Use, reproduction and disclosure by the US Government is
 subject to restrictions as set forth in subparagraphs (a)
 and (c) of the Commercial Computer Software - Restricted
 Rights clause in FAR 52.227-19.
  
 Gaussian, Inc.
 340 Quinnipiac St., Bldg. 40, Wallingford CT 06492
  
  
 ---------------------------------------------------------------
 Warning -- This program may not be used in any manner that
 competes with the business of Gaussian, Inc. or will provide
 assistance to any competitor of Gaussian, Inc.  The licensee
 of this program is prohibited from giving any competitor of
 Gaussian, Inc. access to this program.  By using this program,
 the user acknowledges that Gaussian, Inc. is engaged in the
 business of creating and licensing software in the field of
 computational chemistry and represents and warrants to the
 licensee that it is not a competitor of Gaussian, Inc. and that
 it will not use this program in any manner prohibited above.
 ---------------------------------------------------------------
  

 Cite this work as:
 Gaussian 16, Revision C.01,
 M. J. Frisch, G. W. Trucks, H. B. Schlegel, G. E. Scuseria, 
 M. A. Robb, J. R. Cheeseman, G. Scalmani, V. Barone, 
 G. A. Petersson, H. Nakatsuji, X. Li, M. Caricato, A. V. Marenich, 
 J. Bloino, B. G. Janesko, R. Gomperts, B. Mennucci, H. P. Hratchian, 
 J. V. Ortiz, A. F. Izmaylov, J. L. Sonnenberg, D. Williams-Young, 
 F. Ding, F. Lipparini, F. Egidi, J. Goings, B. Peng, A. Petrone, 
 T. Henderson, D. Ranasinghe, V. G. Zakrzewski, J. Gao, N. Rega, 
 G. Zheng, W. Liang, M. Hada, M. Ehara, K. Toyota, R. Fukuda, 
 J. Hasegawa, M. Ishida, T. Nakajima, Y. Honda, O. Kitao, H. Nakai, 
 T. Vreven, K. Throssell, J. A. Montgomery, Jr., J. E. Peralta, 
 F. Ogliaro, M. J. Bearpark, J. J. Heyd, E. N. Brothers, K. N. Kudin, 
 V. N. Staroverov, T. A. Keith, R. Kobayashi, J. Normand, 
 K. Raghavachari, A. P. Rendell, J. C. Burant, S. S. Iyengar, 
 J. Tomasi, M. Cossi, J. M. Millam, M. Klene, C. Adamo, R. Cammi, 
 J. W. Ochterski, R. L. Martin, K. Morokuma, O. Farkas, 
 J. B. Foresman, and D. J. Fox, Gaussian, Inc., Wallingford CT, 2019.
 
 ******************************************
 Gaussian 16:  ES64L-G16RevC.01  3-Jul-2019
                10-Oct-2025 
 ******************************************
 %nprocshared=32
 Will use up to   32 processors via shared memory.
 %mem=64GB
 %chk=02BDP-NH2_ethanol_m062x_m062x_m062x.chk
 ---------------------------------------------------------
 # td=(nstates=6) scrf=(smd,solvent=ethanol) def2svp m062x
 ---------------------------------------------------------
 1/38=1,172=1/1;
 2/12=2,17=6,18=5,40=1/2;
 3/5=43,7=101,11=9,25=1,30=1,70=32201,72=4,74=-55/1,2,3,8;
 4//1;
 5/5=2,38=5,53=4/2;
 8/6=1,10=1,108=6/1;
 9/41=6,42=1,70=2/14;
 6/7=2,8=2,9=2,10=2/1;
 99/5=1,9=1/99;
 ---------------------------------
 BDP-NH2_ethanol_m062x_m062x_m062x
 ---------------------------------
 Symbolic Z-matrix:
 Charge =  0 Multiplicity = 1
 C                     0.62198  -1.21688  -0.0582 
 C                     0.62572   1.21879   0.04242 
 C                    -0.09601   0.00192  -0.00414 
 C                     0.17275  -2.5483   -0.23217 
 C                     1.3031   -3.35996  -0.28161 
 C                     2.41395  -2.50923  -0.15757 
 H                     1.33745  -4.43896  -0.409 
 C                     2.42233   2.50672   0.11303 
 C                     0.18151   2.55468   0.19372 
 C                     1.31471   3.36334   0.22419 
 H                     1.35281   4.44463   0.32919 
 N                     2.00772  -1.24001  -0.02674 
 N                     2.01166   1.23657   0.00716 
 B                     2.9436   -0.00389   0.02108 
 F                     3.70593  -0.01227   1.1842 
 F                     3.78435   0.00183  -1.08571 
 C                    -1.55706   0.00249  -0.00024 
 C                    -2.291     0.8967   -0.8082 
 C                    -2.28489  -0.89349   0.81139 
 C                    -3.67321   0.89123  -0.81753 
 H                    -1.76032   1.57541  -1.47816 
 C                    -3.66701  -0.88885   0.83054 
 H                    -1.7487   -1.57474   1.47438 
 C                    -4.39956   0.00206   0.01019 
 H                    -4.21904   1.57105  -1.4747 
 H                    -4.20791  -1.57075   1.48964 
 H                    -0.85343   2.8736    0.28985 
 H                     3.48414   2.7518    0.12138 
 H                    -0.8637   -2.86092  -0.33335 
 H                     3.47486  -2.75777  -0.1719 
 N                    -5.75148   0.01533   0.02952 
 H                    -6.26119  -0.69794   0.53565 
 H                    -6.26486   0.58739  -0.62912 
 
                          Input orientation:                          
 ---------------------------------------------------------------------
 Center     Atomic      Atomic             Coordinates (Angstroms)
 Number     Number       Type             X           Y           Z
 ---------------------------------------------------------------------
      1          6           0        0.621981   -1.216876   -0.058200
      2          6           0        0.625721    1.218785    0.042418
      3          6           0       -0.096014    0.001917   -0.004138
      4          6           0        0.172749   -2.548300   -0.232173
      5          6           0        1.303098   -3.359958   -0.281614
      6          6           0        2.413954   -2.509225   -0.157574
      7          1           0        1.337453   -4.438960   -0.408998
      8          6           0        2.422327    2.506716    0.113028
      9          6           0        0.181514    2.554683    0.193718
     10          6           0        1.314712    3.363344    0.224188
     11          1           0        1.352807    4.444626    0.329187
     12          7           0        2.007723   -1.240009   -0.026744
     13          7           0        2.011660    1.236574    0.007158
     14          5           0        2.943603   -0.003890    0.021076
     15          9           0        3.705932   -0.012274    1.184202
     16          9           0        3.784353    0.001829   -1.085708
     17          6           0       -1.557058    0.002491   -0.000240
     18          6           0       -2.290999    0.896703   -0.808202
     19          6           0       -2.284886   -0.893486    0.811385
     20          6           0       -3.673206    0.891229   -0.817532
     21          1           0       -1.760316    1.575407   -1.478159
     22          6           0       -3.667010   -0.888847    0.830541
     23          1           0       -1.748702   -1.574742    1.474381
     24          6           0       -4.399560    0.002061    0.010189
     25          1           0       -4.219037    1.571051   -1.474697
     26          1           0       -4.207907   -1.570750    1.489635
     27          1           0       -0.853432    2.873597    0.289846
     28          1           0        3.484142    2.751798    0.121378
     29          1           0       -0.863700   -2.860919   -0.333347
     30          1           0        3.474860   -2.757772   -0.171903
     31          7           0       -5.751475    0.015325    0.029523
     32          1           0       -6.261194   -0.697937    0.535649
     33          1           0       -6.264860    0.587394   -0.629117
 ---------------------------------------------------------------------
                    Distance matrix (angstroms):
                    1          2          3          4          5
     1  C    0.000000
     2  C    2.437741   0.000000
     3  C    1.415590   1.415569   0.000000
     4  C    1.415898   3.804144   2.574459   0.000000
     5  C    2.259786   4.639906   3.651946   1.392452   0.000000
     6  C    2.211608   4.139545   3.553775   2.242787   1.404683
     7  H    3.319154   5.720176   4.684029   2.227644   1.087038
     8  C    4.139529   2.211684   3.553841   5.543731   5.985506
     9  C    3.805540   1.415922   2.575419   5.120732   6.038780
    10  C    4.640909   2.259841   3.652598   6.038202   6.742311
    11  H    5.721606   3.319178   4.684853   7.113978   7.828607
    12  N    1.386292   2.821415   2.443072   2.262953   2.248475
    13  N    2.820443   1.386502   2.442702   4.214753   4.659781
    14  B    2.620601   2.620681   3.039727   3.770383   3.747809
    15  F    3.536295   3.508116   3.983359   4.573940   4.373696
    16  F    3.541414   3.567998   4.028280   4.502817   4.254974
    17  C    2.497684   2.499143   1.461049   3.090722   4.423316
    18  C    3.676299   3.055249   2.503022   4.274331   5.595891
    19  C    3.051333   3.677585   2.501596   3.141241   4.489071
    20  C    4.844515   4.396314   3.774757   5.192723   6.566841
    21  H    3.935539   2.851755   2.723694   4.721671   5.930772
    22  C    4.392369   4.846730   3.773879   4.315889   5.660853
    23  H    2.845525   3.936013   2.720891   2.748111   3.947657
    24  C    5.167820   5.170581   4.303570   5.241096   6.626359
    25  H    5.763198   5.088950   4.650166   6.148228   7.498818
    26  H    5.084175   5.765406   4.648903   4.807325   6.058858
    27  H    4.362333   2.233275   2.984402   5.542790   6.620755
    28  H    4.896385   3.244524   4.516095   6.259502   6.501763
    29  H    2.232898   4.359307   2.982206   1.087287   2.224125
    30  H    3.244412   4.896584   4.516101   3.309297   2.256372
    31  N    6.492069   6.489770   5.655577   6.460425   7.826643
    32  H    6.928207   7.165661   6.228211   6.738621   8.060570
    33  H    7.142123   6.951958   6.228005   7.171677   8.542619
                    6          7          8          9         10
     6  C    0.000000
     7  H    2.223948   0.000000
     8  C    5.023242   7.049247   0.000000
     9  C    5.545301   7.114106   2.242778   0.000000
    10  C    5.986747   7.827988   1.404628   1.392479   0.000000
    11  H    7.051171   8.914216   2.223981   2.227591   1.087036
    12  N    1.339048   3.290694   3.772185   4.217029   4.661983
    13  N    3.770940   5.730570   1.339073   2.263106   2.248553
    14  B    2.566933   4.736510   2.565799   3.768984   3.746039
    15  F    3.115178   5.267213   3.023304   4.471225   4.246688
    16  F    3.007460   5.115258   3.092983   4.597221   4.372040
    17  C    4.701320   5.317120   4.703135   3.094178   4.426371
    18  C    5.844677   6.464853   5.065200   3.141029   4.489020
    19  C    5.062469   5.213546   5.848669   4.284216   5.605578
    20  C    7.003724   7.326972   6.374266   4.318399   5.663555
    21  H    5.987712   6.849225   4.570964   2.743147   3.943412
    22  C    6.370253   6.259745   7.008901   5.203324   6.577716
    23  H    4.567739   4.612506   5.992417   4.734763   5.944088
    24  C    7.263517   7.267166   7.267876   5.247457   6.633018
    25  H    7.898103   8.254122   6.892319   4.807909   6.059777
    26  H    6.887893   6.525523   7.904478   6.161624   7.513053
    27  H    6.312747   7.665628   3.300979   1.087226   2.223738
    28  H    5.376010   7.523069   1.089764   3.309296   2.256321
    29  H    3.301151   2.709430   6.309416   5.540669   6.617989
    30  H    1.089726   2.729673   5.376230   6.261149   6.503168
    31  N    8.548836   8.383666   8.545469   6.455669   7.821645
    32  H    8.889292   8.522150   9.265633   7.225299   8.601474
    33  H    9.226766   9.116351   8.927586   6.789921   8.116892
                   11         12         13         14         15
    11  H    0.000000
    12  N    5.733295   0.000000
    13  N    3.290803   2.476818   0.000000
    14  B    4.734433   1.551176   1.551600   0.000000
    15  F    5.111967   2.420256   2.411558   1.390711   0.000000
    16  F    5.258592   2.412464   2.421031   1.389915   2.271308
    17  C    5.320564   3.775205   3.776078   4.500716   5.394644
    18  C    5.211404   4.863664   4.392402   5.375856   6.384285
    19  C    6.477713   4.387372   4.862535   5.362189   6.066748
    20  C    6.261182   6.118862   5.754744   6.729537   7.699022
    21  H    4.603309   4.922529   4.068019   5.183506   6.284009
    22  C    7.341379   5.749856   6.119041   6.718526   7.433285
    23  H    6.867577   4.059083   4.919000   5.157266   5.681421
    24  C    7.275154   6.526667   6.528995   7.343173   8.190086
    25  H    6.523563   6.983636   6.413217   7.484730   8.507749
    26  H    8.273628   6.406469   6.982966   7.466981   8.071616
    27  H    2.708721   5.020776   3.311874   4.771755   5.469545
    28  H    2.729733   4.258671   2.115928   2.809993   2.969660
    29  H    7.663083   3.311559   5.017279   4.773236   5.594575
    30  H    7.525207   2.115932   4.257677   2.811288   3.070859
    31  N    8.377310   7.860292   7.858639   8.695103   9.527675
    32  H    9.190299   8.305728   8.512447   9.245257  10.011711
    33  H    8.592173   8.493402   8.326288   9.250306  10.152065
                   16         17         18         19         20
    16  F    0.000000
    17  C    5.450588   0.000000
    18  C    6.147171   1.411059   0.000000
    19  C    6.421543   1.411114   2.414099   0.000000
    20  C    7.515194   2.436371   1.382249   2.786756   0.000000
    21  H    5.776982   2.167861   1.091378   3.407729   2.136276
    22  C    7.745200   2.436509   2.786947   1.382265   2.425872
    23  H    6.297168   2.167694   3.407684   1.091406   3.877834
    24  C    8.256962   2.842521   2.432319   2.432235   1.415391
    25  H    8.165049   3.423527   2.148556   3.878280   1.091767
    26  H    8.542928   3.423714   3.878520   2.148655   3.416177
    27  H    5.625678   2.970268   2.679630   4.063493   3.620386
    28  H    3.018197   5.743446   6.136591   6.859001   7.454589
    29  H    5.510514   2.964932   4.047517   2.683463   4.712364
    30  H    2.923392   5.741839   6.856033   6.133277   8.051515
    31  N    9.600830   4.194542   3.667902   3.668036   2.409131
    32  H   10.199583   4.786092   4.484558   3.990651   3.324790
    33  H   10.076609   4.785499   3.989902   4.484222   2.616197
                   21         22         23         24         25
    21  H    0.000000
    22  C    3.877902   0.000000
    23  H    4.317530   2.136560   0.000000
    24  C    3.414119   1.415388   3.414266   0.000000
    25  H    2.458727   3.416131   4.969470   2.167765   0.000000
    26  H    4.969588   1.091772   2.459256   2.167770   4.319526
    27  H    2.373516   4.729118   4.689600   4.571537   4.017155
    28  H    5.607741   8.055817   6.923310   8.350220   7.954910
    29  H    4.668565   3.619703   2.388590   4.562563   5.674797
    30  H    6.920247   7.450106   5.603161   8.346037   8.923678
    31  N    4.542721   2.409181   4.542920   1.352118   2.651665
    32  H    5.429679   2.617861   4.691758   2.057131   3.655161
    33  H    4.689132   3.325464   5.430950   2.056859   2.422391
                   26         27         28         29         30
    26  H    0.000000
    27  H    5.695982   0.000000
    28  H    8.928839   4.342553   0.000000
    29  H    4.021383   5.768288   7.114288   0.000000
    30  H    7.949506   7.117559   5.517378   4.342788   0.000000
    31  N    2.651445   5.676999   9.632930   5.682851   9.636176
    32  H    2.426495   6.485381  10.346201   5.879336   9.976688
    33  H    3.657561   5.945988  10.014536   6.414895  10.308313
                   31         32         33
    31  N    0.000000
    32  H    1.012284   0.000000
    33  H    1.012242   1.734580   0.000000
 Stoichiometry    C15H12BF2N3
 Framework group  C1[X(C15H12BF2N3)]
 Deg. of freedom    93
 Full point group                 C1      NOp   1
 Largest Abelian subgroup         C1      NOp   1
 Largest concise Abelian subgroup C1      NOp   1
                         Standard orientation:                         
 ---------------------------------------------------------------------
 Center     Atomic      Atomic             Coordinates (Angstroms)
 Number     Number       Type             X           Y           Z
 ---------------------------------------------------------------------
      1          6           0        0.621981   -1.216876   -0.058200
      2          6           0        0.625721    1.218785    0.042418
      3          6           0       -0.096014    0.001917   -0.004138
      4          6           0        0.172749   -2.548300   -0.232173
      5          6           0        1.303098   -3.359958   -0.281614
      6          6           0        2.413954   -2.509225   -0.157574
      7          1           0        1.337453   -4.438960   -0.408998
      8          6           0        2.422327    2.506716    0.113028
      9          6           0        0.181514    2.554683    0.193718
     10          6           0        1.314712    3.363344    0.224188
     11          1           0        1.352807    4.444626    0.329187
     12          7           0        2.007723   -1.240009   -0.026744
     13          7           0        2.011660    1.236574    0.007158
     14          5           0        2.943603   -0.003890    0.021076
     15          9           0        3.705932   -0.012274    1.184202
     16          9           0        3.784353    0.001829   -1.085708
     17          6           0       -1.557058    0.002491   -0.000240
     18          6           0       -2.290999    0.896703   -0.808202
     19          6           0       -2.284886   -0.893486    0.811385
     20          6           0       -3.673206    0.891229   -0.817532
     21          1           0       -1.760316    1.575407   -1.478159
     22          6           0       -3.667010   -0.888847    0.830541
     23          1           0       -1.748702   -1.574742    1.474381
     24          6           0       -4.399560    0.002061    0.010189
     25          1           0       -4.219037    1.571051   -1.474697
     26          1           0       -4.207907   -1.570750    1.489635
     27          1           0       -0.853432    2.873597    0.289846
     28          1           0        3.484142    2.751798    0.121378
     29          1           0       -0.863700   -2.860919   -0.333347
     30          1           0        3.474860   -2.757772   -0.171903
     31          7           0       -5.751475    0.015325    0.029523
     32          1           0       -6.261194   -0.697937    0.535649
     33          1           0       -6.264860    0.587394   -0.629117
 ---------------------------------------------------------------------
 Rotational constants (GHZ):           0.5795983           0.2151487           0.1666608
 Standard basis: def2SVP (5D, 7F)
 There are   375 symmetry adapted cartesian basis functions of A   symmetry.
 There are   354 symmetry adapted basis functions of A   symmetry.
   354 basis functions,   609 primitive gaussians,   375 cartesian basis functions
    73 alpha electrons       73 beta electrons
       nuclear repulsion energy      1590.1687324607 Hartrees.
 NAtoms=   33 NActive=   33 NUniq=   33 SFac= 1.00D+00 NAtFMM=   60 NAOKFM=F Big=F
 Integral buffers will be    131072 words long.
 Regular integral format.
 Two-electron integral symmetry is turned on.
 ------------------------------------------------------------------------------
 Polarizable Continuum Model (PCM)
 =================================
 Model                : PCM.
 Atomic radii         : SMD-Coulomb.
 Polarization charges : Total charges.
 Charge compensation  : None.
 Solution method      : On-the-fly selection.
 Cavity type          : VdW (van der Waals Surface) (Alpha=1.000).
 Cavity algorithm     : GePol (No added spheres)
                        Default sphere list used, NSphG=   33.
                        Lebedev-Laikov grids with approx.  5.0 points / Ang**2.
                        Smoothing algorithm: York/Karplus (Gamma=1.0000).
                        Polarization charges: spherical gaussians, with
                                              point-specific exponents (IZeta= 3).
                        Self-potential: point-specific (ISelfS= 7).
                        Self-field    : sphere-specific E.n sum rule (ISelfD= 2).
 Solvent              : Ethanol, Eps=  24.852000 Eps(inf)=   1.852593
 ------------------------------------------------------------------------------
 ------------------------------------------------------------------------------
 Atomic radii for non-electrostatic terms: SMD-CDS.
 ------------------------------------------------------------------------------
 Nuclear repulsion after PCM non-electrostatic terms =     1590.1679355899 Hartrees.
 One-electron integrals computed using PRISM.
   1 Symmetry operations used in ECPInt.
 ECPInt:  NShTT=   13203 NPrTT=   49137 LenC2=   11971 LenP2D=   31031.
 LDataN:  DoStor=T MaxTD1= 4 Len=   56
 NBasis=   354 RedAO= T EigKep=  2.61D-04  NBF=   354
 NBsUse=   354 1.00D-06 EigRej= -1.00D+00 NBFU=   354
 ExpMin= 8.36D-02 ExpMax= 2.89D+03 ExpMxC= 4.35D+02 IAcc=3 IRadAn=         5 AccDes= 0.00D+00
 Harris functional with IExCor= 1009 and IRadAn=       5 diagonalized for initial guess.
 HarFok:  IExCor= 1009 AccDes= 0.00D+00 IRadAn=         5 IDoV= 1 UseB2=F ITyADJ=14
 ICtDFT=  3500011 ScaDFX=  1.000000  1.000000  1.000000  1.000000
 FoFCou: FMM=F IPFlag=           0 FMFlag=      100000 FMFlg1=           0
         NFxFlg=           0 DoJE=T BraDBF=F KetDBF=T FulRan=T
         wScrn=  0.000000 ICntrl=       500 IOpCl=  0 I1Cent=   200000004 NGrid=           0
         NMat0=    1 NMatS0=      1 NMatT0=    0 NMatD0=    1 NMtDS0=    0 NMtDT0=    0
 Petite list used in FoFCou.
 Requested convergence on RMS density matrix=1.00D-08 within 128 cycles.
 Requested convergence on MAX density matrix=1.00D-06.
 Requested convergence on             energy=1.00D-06.
 No special actions if energy rises.
 Inv3:  Mode=1 IEnd=    19691532.
 Iteration    1 A*A^-1 deviation from unit magnitude is 5.77D-15 for   2560.
 Iteration    1 A*A^-1 deviation from orthogonality  is 3.19D-15 for   2560    578.
 Iteration    1 A^-1*A deviation from unit magnitude is 5.77D-15 for   2560.
 Iteration    1 A^-1*A deviation from orthogonality  is 1.52D-15 for   2558   2544.
 Error on total polarization charges =  0.03892
 SCF Done:  E(RM062X) =  -966.749116139     A.U. after   14 cycles
            NFock= 14  Conv=0.41D-08     -V/T= 2.0096
 SMD-CDS (non-electrostatic) energy       (kcal/mol) =      -0.50
 (included in total energy above)
 DoSCS=F DFT=T ScalE2(SS,OS)=  1.000000  1.000000
 ExpMin= 8.36D-02 ExpMax= 2.89D+03 ExpMxC= 4.35D+02 IAcc=3 IRadAn=         5 AccDes= 0.00D+00
 HarFok:  IExCor=  205 AccDes= 0.00D+00 IRadAn=         5 IDoV=-2 UseB2=F ITyADJ=14
 ICtDFT= 12500011 ScaDFX=  1.000000  1.000000  1.000000  1.000000
 GSVD:  LWork=        -609 too small for GESVD, short by        2520 words or        2520 for optimal perf.
 Range of M.O.s used for correlation:    22   354
 NBasis=   354 NAE=    73 NBE=    73 NFC=    21 NFV=     0
 NROrb=    333 NOA=    52 NOB=    52 NVA=   281 NVB=   281

 **** Warning!!: The largest alpha MO coefficient is  0.15383775D+02

 Keep R1, R2, and R3 ints in memory in canonical form, NReq=6407398096.
 NEqPCM:  Using non-equilibrium solvation (IEInf=1, Eps=  24.8520, EpsInf=   1.8526)
 Inv3:  Mode=1 IEnd=    19691532.
 Iteration    1 A*A^-1 deviation from unit magnitude is 7.55D-15 for   2558.
 Iteration    1 A*A^-1 deviation from orthogonality  is 1.98D-15 for   2549    950.
 Iteration    1 A^-1*A deviation from unit magnitude is 7.55D-15 for   2558.
 Iteration    1 A^-1*A deviation from orthogonality  is 2.09D-15 for   2279    878.
 Orbital symmetries:
       Occupied  (A) (A) (A) (A) (A) (A) (A) (A) (A) (A) (A) (A)
                 (A) (A) (A) (A) (A) (A) (A) (A) (A) (A) (A) (A)
                 (A) (A) (A) (A) (A) (A) (A) (A) (A) (A) (A) (A)
                 (A) (A) (A) (A) (A) (A) (A) (A) (A) (A) (A) (A)
                 (A) (A) (A) (A) (A) (A) (A) (A) (A) (A) (A) (A)
                 (A) (A) (A) (A) (A) (A) (A) (A) (A) (A) (A) (A)
                 (A)
       Virtual   (A) (A) (A) (A) (A) (A) (A) (A) (A) (A) (A) (A)
                 (A) (A) (A) (A) (A) (A) (A) (A) (A) (A) (A) (A)
                 (A) (A) (A) (A) (A) (A) (A) (A) (A) (A) (A) (A)
                 (A) (A) (A) (A) (A) (A) (A) (A) (A) (A) (A) (A)
                 (A) (A) (A) (A) (A) (A) (A) (A) (A) (A) (A) (A)
                 (A) (A) (A) (A) (A) (A) (A) (A) (A) (A) (A) (A)
                 (A) (A) (A) (A) (A) (A) (A) (A) (A) (A) (A) (A)
                 (A) (A) (A) (A) (A) (A) (A) (A) (A) (A) (A) (A)
                 (A) (A) (A) (A) (A) (A) (A) (A) (A) (A) (A) (A)
                 (A) (A) (A) (A) (A) (A) (A) (A) (A) (A) (A) (A)
                 (A) (A) (A) (A) (A) (A) (A) (A) (A) (A) (A) (A)
                 (A) (A) (A) (A) (A) (A) (A) (A) (A) (A) (A) (A)
                 (A) (A) (A) (A) (A) (A) (A) (A) (A) (A) (A) (A)
                 (A) (A) (A) (A) (A) (A) (A) (A) (A) (A) (A) (A)
                 (A) (A) (A) (A) (A) (A) (A) (A) (A) (A) (A) (A)
                 (A) (A) (A) (A) (A) (A) (A) (A) (A) (A) (A) (A)
                 (A) (A) (A) (A) (A) (A) (A) (A) (A) (A) (A) (A)
                 (A) (A) (A) (A) (A) (A) (A) (A) (A) (A) (A) (A)
                 (A) (A) (A) (A) (A) (A) (A) (A) (A) (A) (A) (A)
                 (A) (A) (A) (A) (A) (A) (A) (A) (A) (A) (A) (A)
                 (A) (A) (A) (A) (A) (A) (A) (A) (A) (A) (A) (A)
                 (A) (A) (A) (A) (A) (A) (A) (A) (A) (A) (A) (A)
                 (A) (A) (A) (A) (A) (A) (A) (A) (A) (A) (A) (A)
                 (A) (A) (A) (A) (A)
    24 initial guesses have been made.
 Convergence on wavefunction:    0.001000000000000
 Iteration     1 Dimension    24 NMult     0 NNew     24
 CISAX will form    24 AO SS matrices at one time.
 New state      6 was old state      7
 Iteration     2 Dimension    36 NMult    24 NNew     12
 New state      4 was old state      5
 New state      5 was old state      4
 Iteration     3 Dimension    48 NMult    36 NNew     12
 Iteration     4 Dimension    60 NMult    48 NNew     12
 Iteration     5 Dimension    72 NMult    60 NNew     12
 Iteration     6 Dimension    74 NMult    72 NNew      2
 ***********************************************************************
 Excited states from <AA,BB:AA,BB> singles matrix:
 ***********************************************************************
 
 Ground to excited state transition densities written to RWF  633
 Ground to excited state transition electric dipole moments (Au):
       state          X           Y           Z        Dip. S.      Osc.
         1         2.5919     -0.0032     -0.0156      6.7184      0.4689
         2         0.0049      2.6309      0.1974      6.9609      0.5187
         3        -0.0045     -0.8356     -0.1131      0.7111      0.0712
         4        -0.7803      0.0074     -0.0002      0.6089      0.0650
         5         0.0198      0.1534      0.0570      0.0272      0.0029
         6        -0.0026     -0.6514      0.5341      0.7096      0.0860
 Ground to excited state transition velocity dipole moments (Au):
       state          X           Y           Z        Dip. S.      Osc.
         1        -0.2669      0.0002      0.0015      0.0712      0.4535
         2        -0.0006     -0.2969     -0.0228      0.0887      0.5288
         3         0.0007      0.1311      0.0191      0.0176      0.0780
         4         0.1246     -0.0012      0.0000      0.0155      0.0647
         5        -0.0032     -0.0237     -0.0111      0.0007      0.0029
         6         0.0004      0.1308     -0.1072      0.0286      0.1050
 Ground to excited state transition magnetic dipole moments (Au):
       state          X           Y           Z
         1         0.0571      0.0030     -0.0016
         2        -0.0028     -0.0601      0.5548
         3         0.0007     -0.1599      1.3125
         4        -0.0530     -0.0210     -0.0199
         5         0.0006     -0.3348     -0.5355
         6         0.0079     -0.2749     -0.2903
 Ground to excited state transition velocity quadrupole moments (Au):
       state          XX          YY          ZZ          XY          XZ          YZ
         1         1.5107     -0.6612      0.0234     -0.0049     -0.0033     -0.1004
         2        -0.0036     -0.0003      0.0018     -0.9830     -0.0303      0.0137
         3        -0.0017      0.0035     -0.0009      0.0258     -0.0270     -0.0033
         4         0.3445     -0.1373     -0.0105      0.0000     -0.0003     -0.0248
         5        -0.0129      0.0041      0.0011      0.0332     -0.0433      0.0015
         6         0.0040      0.0043     -0.0050     -0.6681      0.7231      0.0007
 <0|del|b> * <b|rxdel|0> + <0|del|b> * <b|delr+rdel|0>
 Rotatory Strengths (R) in cgs (10**-40 erg-esu-cm/Gauss)
       state          XX          YY          ZZ    R(velocity)    E-M Angle
         1        -0.0272     39.0635   -141.8989    -34.2875      176.70
         2        58.8670   -110.8477     84.9497     10.9897       88.20
         3        19.0896     57.8116    -57.7282      6.3910       88.67
         4         0.0531    -21.4315     -7.7102     -9.6962      151.02
         5        27.4220     13.8633     19.6813     20.3222       33.51
         6       -53.9846    -78.8335    114.0473     -6.2570       94.09
 1/2[<0|r|b>*<b|rxdel|0> + (<0|rxdel|b>*<b|r|0>)*]
 Rotatory Strengths (R) in cgs (10**-40 erg-esu-cm/Gauss)
       state          XX          YY          ZZ     R(length)
         1      -104.5755      0.0068     -0.0176    -34.8621
         2         0.0098    111.8527    -77.4477     11.4716
         3         0.0021    -94.5005    104.9988      3.5001
         4       -29.2612      0.1104     -0.0027     -9.7178
         5        -0.0078     36.3063     21.5861     19.2949
         6         0.0146   -126.6495    109.6428     -5.6640
  1/2[<0|del|b>*<b|r|0> + (<0|r|b>*<b|del|0>)*] (Au)
       state          X           Y           Z        Dip. S.   Osc.(frdel)
         1        -0.6917     -0.0000     -0.0000      0.6917      0.4611
         2        -0.0000     -0.7812     -0.0045      0.7857      0.5238
         3        -0.0000     -0.1096     -0.0022      0.1117      0.0745
         4        -0.0972     -0.0000     -0.0000      0.0972      0.0648
         5        -0.0001     -0.0036     -0.0006      0.0043      0.0029
         6        -0.0000     -0.0852     -0.0573      0.1425      0.0950

 Excitation energies and oscillator strengths:
 
 Excited State   1:      Singlet-A      2.8486 eV  435.25 nm  f=0.4689  <S**2>=0.000
      73 -> 74         0.69818
 This state for optimization and/or second-order correction.
 Total Energy, E(TD-HF/TD-DFT) =  -966.644432420    
 Copying the excited state density for this state as the 1-particle RhoCI density.
 
 Excited State   2:      Singlet-A      3.0418 eV  407.59 nm  f=0.5187  <S**2>=0.000
      72 -> 74         0.69893
 
 Excited State   3:      Singlet-A      4.0847 eV  303.53 nm  f=0.0712  <S**2>=0.000
      70 -> 74        -0.21187
      71 -> 74         0.66596
 
 Excited State   4:      Singlet-A      4.3545 eV  284.73 nm  f=0.0650  <S**2>=0.000
      69 -> 74         0.70060
 
 Excited State   5:      Singlet-A      4.3913 eV  282.34 nm  f=0.0029  <S**2>=0.000
      70 -> 74         0.64726
      71 -> 74         0.19483
      73 -> 75        -0.18339
 
 Excited State   6:      Singlet-A      4.9452 eV  250.72 nm  f=0.0860  <S**2>=0.000
      70 -> 74         0.17672
      70 -> 76        -0.13378
      73 -> 75         0.65800
 SavETr:  write IOETrn=   770 NScale= 10 NData=  16 NLR=1 NState=    6 LETran=     118.

 **********************************************************************

            Population analysis using the SCF Density.

 **********************************************************************

 Orbital symmetries:
       Occupied  (A) (A) (A) (A) (A) (A) (A) (A) (A) (A) (A) (A)
                 (A) (A) (A) (A) (A) (A) (A) (A) (A) (A) (A) (A)
                 (A) (A) (A) (A) (A) (A) (A) (A) (A) (A) (A) (A)
                 (A) (A) (A) (A) (A) (A) (A) (A) (A) (A) (A) (A)
                 (A) (A) (A) (A) (A) (A) (A) (A) (A) (A) (A) (A)
                 (A) (A) (A) (A) (A) (A) (A) (A) (A) (A) (A) (A)
                 (A)
       Virtual   (A) (A) (A) (A) (A) (A) (A) (A) (A) (A) (A) (A)
                 (A) (A) (A) (A) (A) (A) (A) (A) (A) (A) (A) (A)
                 (A) (A) (A) (A) (A) (A) (A) (A) (A) (A) (A) (A)
                 (A) (A) (A) (A) (A) (A) (A) (A) (A) (A) (A) (A)
                 (A) (A) (A) (A) (A) (A) (A) (A) (A) (A) (A) (A)
                 (A) (A) (A) (A) (A) (A) (A) (A) (A) (A) (A) (A)
                 (A) (A) (A) (A) (A) (A) (A) (A) (A) (A) (A) (A)
                 (A) (A) (A) (A) (A) (A) (A) (A) (A) (A) (A) (A)
                 (A) (A) (A) (A) (A) (A) (A) (A) (A) (A) (A) (A)
                 (A) (A) (A) (A) (A) (A) (A) (A) (A) (A) (A) (A)
                 (A) (A) (A) (A) (A) (A) (A) (A) (A) (A) (A) (A)
                 (A) (A) (A) (A) (A) (A) (A) (A) (A) (A) (A) (A)
                 (A) (A) (A) (A) (A) (A) (A) (A) (A) (A) (A) (A)
                 (A) (A) (A) (A) (A) (A) (A) (A) (A) (A) (A) (A)
                 (A) (A) (A) (A) (A) (A) (A) (A) (A) (A) (A) (A)
                 (A) (A) (A) (A) (A) (A) (A) (A) (A) (A) (A) (A)
                 (A) (A) (A) (A) (A) (A) (A) (A) (A) (A) (A) (A)
                 (A) (A) (A) (A) (A) (A) (A) (A) (A) (A) (A) (A)
                 (A) (A) (A) (A) (A) (A) (A) (A) (A) (A) (A) (A)
                 (A) (A) (A) (A) (A) (A) (A) (A) (A) (A) (A) (A)
                 (A) (A) (A) (A) (A) (A) (A) (A) (A) (A) (A) (A)
                 (A) (A) (A) (A) (A) (A) (A) (A) (A) (A) (A) (A)
                 (A) (A) (A) (A) (A) (A) (A) (A) (A) (A) (A) (A)
                 (A) (A) (A) (A) (A)
 The electronic state is 1-A.
 Alpha  occ. eigenvalues --  -25.20240 -25.20191 -14.79254 -14.79246 -14.77009
 Alpha  occ. eigenvalues --  -10.61790 -10.61145 -10.59728 -10.59725 -10.59342
 Alpha  occ. eigenvalues --  -10.59334 -10.56886 -10.56867 -10.56778 -10.56471
 Alpha  occ. eigenvalues --  -10.56465 -10.55442 -10.55439 -10.55115 -10.55111
 Alpha  occ. eigenvalues --   -7.13764  -1.29262  -1.25748  -1.09829  -1.07895
 Alpha  occ. eigenvalues --   -1.02655  -0.95773  -0.90539  -0.88108  -0.86606
 Alpha  occ. eigenvalues --   -0.84077  -0.81737  -0.81251  -0.74575  -0.70163
 Alpha  occ. eigenvalues --   -0.68880  -0.68697  -0.65775  -0.65598  -0.64866
 Alpha  occ. eigenvalues --   -0.61601  -0.60562  -0.59685  -0.58990  -0.57867
 Alpha  occ. eigenvalues --   -0.57681  -0.54062  -0.52835  -0.51619  -0.51579
 Alpha  occ. eigenvalues --   -0.51038  -0.50693  -0.50004  -0.49280  -0.48812
 Alpha  occ. eigenvalues --   -0.47740  -0.47198  -0.46694  -0.46617  -0.45674
 Alpha  occ. eigenvalues --   -0.45458  -0.44951  -0.44631  -0.43009  -0.41776
 Alpha  occ. eigenvalues --   -0.40478  -0.39625  -0.34996  -0.32384  -0.31947
 Alpha  occ. eigenvalues --   -0.31488  -0.26484  -0.25316
 Alpha virt. eigenvalues --   -0.08126   0.02113   0.03630   0.06676   0.08347
 Alpha virt. eigenvalues --    0.10291   0.11229   0.12874   0.13539   0.13707
 Alpha virt. eigenvalues --    0.14215   0.15117   0.15722   0.16799   0.17635
 Alpha virt. eigenvalues --    0.17967   0.18072   0.18505   0.19991   0.20931
 Alpha virt. eigenvalues --    0.22108   0.22289   0.23491   0.24782   0.24841
 Alpha virt. eigenvalues --    0.26211   0.27792   0.28378   0.30244   0.30512
 Alpha virt. eigenvalues --    0.32282   0.32414   0.33598   0.34502   0.34520
 Alpha virt. eigenvalues --    0.35942   0.36757   0.37865   0.40467   0.40846
 Alpha virt. eigenvalues --    0.41244   0.42163   0.43972   0.44223   0.45148
 Alpha virt. eigenvalues --    0.45242   0.45650   0.46145   0.46536   0.47475
 Alpha virt. eigenvalues --    0.48379   0.49148   0.49928   0.50679   0.51413
 Alpha virt. eigenvalues --    0.52206   0.53227   0.53658   0.53917   0.55976
 Alpha virt. eigenvalues --    0.56083   0.57295   0.57397   0.59371   0.60411
 Alpha virt. eigenvalues --    0.60599   0.60863   0.62212   0.62465   0.62931
 Alpha virt. eigenvalues --    0.64265   0.64462   0.65560   0.68474   0.68987
 Alpha virt. eigenvalues --    0.70354   0.70396   0.70624   0.71340   0.71470
 Alpha virt. eigenvalues --    0.73036   0.73445   0.73596   0.74822   0.75826
 Alpha virt. eigenvalues --    0.76154   0.76452   0.77215   0.77615   0.78212
 Alpha virt. eigenvalues --    0.78746   0.79676   0.80331   0.80419   0.82011
 Alpha virt. eigenvalues --    0.82233   0.83753   0.84873   0.86568   0.87228
 Alpha virt. eigenvalues --    0.87479   0.88809   0.90803   0.91501   0.92027
 Alpha virt. eigenvalues --    0.93494   0.94448   0.96834   0.98312   1.01428
 Alpha virt. eigenvalues --    1.01915   1.02952   1.04275   1.05493   1.09822
 Alpha virt. eigenvalues --    1.10110   1.11534   1.12281   1.13662   1.16034
 Alpha virt. eigenvalues --    1.17978   1.19512   1.23033   1.23863   1.24787
 Alpha virt. eigenvalues --    1.26506   1.26785   1.28174   1.28883   1.29770
 Alpha virt. eigenvalues --    1.30498   1.30710   1.31716   1.32951   1.33495
 Alpha virt. eigenvalues --    1.34379   1.34777   1.36056   1.36279   1.37394
 Alpha virt. eigenvalues --    1.39560   1.40535   1.40664   1.42437   1.42698
 Alpha virt. eigenvalues --    1.44624   1.46445   1.50833   1.52439   1.53060
 Alpha virt. eigenvalues --    1.54460   1.58576   1.59465   1.60642   1.64344
 Alpha virt. eigenvalues --    1.67185   1.67677   1.68481   1.68911   1.70658
 Alpha virt. eigenvalues --    1.70710   1.70908   1.72551   1.74127   1.75378
 Alpha virt. eigenvalues --    1.76229   1.76793   1.77639   1.78455   1.78978
 Alpha virt. eigenvalues --    1.80149   1.80356   1.80720   1.81213   1.82310
 Alpha virt. eigenvalues --    1.83736   1.84073   1.84969   1.87690   1.88270
 Alpha virt. eigenvalues --    1.89439   1.90066   1.90279   1.90826   1.91736
 Alpha virt. eigenvalues --    1.94007   1.95547   1.95868   1.96907   1.97372
 Alpha virt. eigenvalues --    1.98256   1.99290   1.99668   2.00344   2.01878
 Alpha virt. eigenvalues --    2.02415   2.02598   2.05419   2.06311   2.08444
 Alpha virt. eigenvalues --    2.10524   2.12711   2.15896   2.15951   2.17704
 Alpha virt. eigenvalues --    2.17870   2.18137   2.18682   2.20394   2.21589
 Alpha virt. eigenvalues --    2.22428   2.23161   2.24851   2.25512   2.27368
 Alpha virt. eigenvalues --    2.28601   2.29367   2.31711   2.32717   2.34919
 Alpha virt. eigenvalues --    2.35372   2.35963   2.36962   2.37706   2.38930
 Alpha virt. eigenvalues --    2.41005   2.43330   2.48182   2.52156   2.55241
 Alpha virt. eigenvalues --    2.56587   2.58199   2.59416   2.60814   2.64034
 Alpha virt. eigenvalues --    2.65995   2.67560   2.68564   2.68958   2.69908
 Alpha virt. eigenvalues --    2.70886   2.71891   2.72944   2.74251   2.74441
 Alpha virt. eigenvalues --    2.75384   2.75523   2.76024   2.77704   2.81307
 Alpha virt. eigenvalues --    2.85916   2.89199   2.89295   2.90970   2.92224
 Alpha virt. eigenvalues --    2.93650   2.99646   3.02056   3.02896   3.09965
 Alpha virt. eigenvalues --    3.11036   3.18038   3.18464   3.18597   3.20060
 Alpha virt. eigenvalues --    3.21407   3.24308   3.25637   3.26374   3.28374
 Alpha virt. eigenvalues --    3.35002   3.43961   3.47551   3.49188   3.52785
 Alpha virt. eigenvalues --    3.53706   3.56334   3.62402   3.69676   3.82430
 Alpha virt. eigenvalues --    3.83427
          Condensed to atoms (all electrons):
               1          2          3          4          5          6
     1  C    5.274947  -0.048565   0.274812   0.375590   0.005701  -0.155303
     2  C   -0.048565   5.275186   0.274830   0.011750  -0.000223   0.000412
     3  C    0.274812   0.274830   5.377057  -0.113117   0.021148   0.010800
     4  C    0.375590   0.011750  -0.113117   5.140714   0.343976  -0.000616
     5  C    0.005701  -0.000223   0.021148   0.343976   5.063570   0.365668
     6  C   -0.155303   0.000412   0.010800  -0.000616   0.365668   4.872510
     7  H    0.012584   0.000004  -0.000495  -0.061245   0.457282  -0.057503
     8  C    0.000351  -0.155730   0.010910   0.000028  -0.000003   0.000021
     9  C    0.011922   0.375479  -0.113541  -0.000167   0.000005   0.000030
    10  C   -0.000222   0.006338   0.021181   0.000006  -0.000000  -0.000004
    11  H    0.000004   0.012567  -0.000498  -0.000000   0.000000   0.000000
    12  N    0.448283  -0.009512  -0.079813  -0.103340  -0.061187   0.436605
    13  N   -0.009407   0.448219  -0.080056  -0.000348  -0.000037   0.000206
    14  B   -0.046695  -0.046398  -0.010430   0.002828  -0.001311  -0.007313
    15  F   -0.003189  -0.003155   0.001490  -0.000052  -0.000004  -0.001673
    16  F   -0.003213  -0.003214   0.001553  -0.000046  -0.000015   0.000661
    17  C   -0.075409  -0.075399   0.374026  -0.013240   0.000644  -0.000215
    18  C    0.007859  -0.023738  -0.065590  -0.000180   0.000024   0.000003
    19  C   -0.023828   0.008069  -0.065631  -0.000433   0.000288  -0.000044
    20  C   -0.000143   0.002118   0.009834  -0.000028  -0.000002   0.000000
    21  H   -0.000293  -0.000843  -0.011783  -0.000026   0.000000   0.000001
    22  C    0.002142  -0.000172   0.009895  -0.000614  -0.000037  -0.000000
    23  H   -0.000676  -0.000254  -0.012015   0.001446   0.000901  -0.000120
    24  C   -0.000074  -0.000055   0.001761  -0.000007   0.000001  -0.000000
    25  H    0.000001   0.000002  -0.000311  -0.000000  -0.000000   0.000000
    26  H    0.000005  -0.000001  -0.000311  -0.000010  -0.000001   0.000000
    27  H   -0.000476  -0.036773  -0.020089  -0.000000   0.000000  -0.000000
    28  H    0.000030   0.003379  -0.000480  -0.000001   0.000000   0.000008
    29  H   -0.036714  -0.000488  -0.020145   0.451437  -0.062580   0.011815
    30  H    0.003395   0.000031  -0.000477   0.010739  -0.054972   0.428285
    31  N   -0.000000  -0.000000   0.000016   0.000000   0.000000   0.000000
    32  H   -0.000000   0.000000   0.000000   0.000000   0.000000  -0.000000
    33  H    0.000000  -0.000000   0.000000   0.000000   0.000000   0.000000
               7          8          9         10         11         12
     1  C    0.012584   0.000351   0.011922  -0.000222   0.000004   0.448283
     2  C    0.000004  -0.155730   0.375479   0.006338   0.012567  -0.009512
     3  C   -0.000495   0.010910  -0.113541   0.021181  -0.000498  -0.079813
     4  C   -0.061245   0.000028  -0.000167   0.000006  -0.000000  -0.103340
     5  C    0.457282  -0.000003   0.000005  -0.000000   0.000000  -0.061187
     6  C   -0.057503   0.000021   0.000030  -0.000004   0.000000   0.436605
     7  H    0.601421   0.000000  -0.000000   0.000000  -0.000000   0.004777
     8  C    0.000000   4.873335  -0.000163   0.364761  -0.057571   0.000261
     9  C   -0.000000  -0.000163   5.141325   0.343245  -0.061151  -0.000329
    10  C    0.000000   0.364761   0.343245   5.064321   0.457269  -0.000044
    11  H   -0.000000  -0.057571  -0.061151   0.457269   0.601448   0.000002
    12  N    0.004777   0.000261  -0.000329  -0.000044   0.000002   6.433049
    13  N    0.000002   0.436321  -0.103527  -0.061159   0.004787  -0.057679
    14  B    0.000165  -0.006698   0.002763  -0.001491   0.000162   0.289677
    15  F    0.000001  -0.000003  -0.000018  -0.000161   0.000000  -0.035795
    16  F    0.000000  -0.001054  -0.000075   0.000097   0.000001  -0.037630
    17  C    0.000002  -0.000197  -0.013587   0.000664   0.000002   0.004512
    18  C    0.000000  -0.000047  -0.000312   0.000283  -0.000005  -0.000079
    19  C   -0.000006   0.000002  -0.000201   0.000025   0.000000   0.000043
    20  C   -0.000000  -0.000000  -0.000570  -0.000037  -0.000000   0.000001
    21  H    0.000000  -0.000126   0.001474   0.000932   0.000006  -0.000001
    22  C   -0.000000   0.000000  -0.000022  -0.000002  -0.000000   0.000004
    23  H    0.000006   0.000001  -0.000030   0.000000   0.000000  -0.000294
    24  C   -0.000000  -0.000000  -0.000011   0.000001  -0.000000  -0.000000
    25  H   -0.000000   0.000000  -0.000006  -0.000001  -0.000000  -0.000000
    26  H   -0.000000   0.000000  -0.000000   0.000000  -0.000000  -0.000000
    27  H   -0.000000   0.011813   0.451518  -0.062555  -0.005014  -0.000016
    28  H   -0.000000   0.428067   0.010746  -0.054898  -0.003699   0.000162
    29  H   -0.005008  -0.000000  -0.000000   0.000000  -0.000000   0.005172
    30  H   -0.003703   0.000009  -0.000001   0.000000  -0.000000  -0.033653
    31  N   -0.000000   0.000000   0.000000   0.000000  -0.000000   0.000000
    32  H   -0.000000   0.000000  -0.000000   0.000000   0.000000  -0.000000
    33  H   -0.000000   0.000000  -0.000000  -0.000000  -0.000000  -0.000000
              13         14         15         16         17         18
     1  C   -0.009407  -0.046695  -0.003189  -0.003213  -0.075409   0.007859
     2  C    0.448219  -0.046398  -0.003155  -0.003214  -0.075399  -0.023738
     3  C   -0.080056  -0.010430   0.001490   0.001553   0.374026  -0.065590
     4  C   -0.000348   0.002828  -0.000052  -0.000046  -0.013240  -0.000180
     5  C   -0.000037  -0.001311  -0.000004  -0.000015   0.000644   0.000024
     6  C    0.000206  -0.007313  -0.001673   0.000661  -0.000215   0.000003
     7  H    0.000002   0.000165   0.000001   0.000000   0.000002   0.000000
     8  C    0.436321  -0.006698  -0.000003  -0.001054  -0.000197  -0.000047
     9  C   -0.103527   0.002763  -0.000018  -0.000075  -0.013587  -0.000312
    10  C   -0.061159  -0.001491  -0.000161   0.000097   0.000664   0.000283
    11  H    0.004787   0.000162   0.000000   0.000001   0.000002  -0.000005
    12  N   -0.057679   0.289677  -0.035795  -0.037630   0.004512  -0.000079
    13  N    6.435288   0.289039  -0.038209  -0.035346   0.004446   0.000047
    14  B    0.289039   3.366965   0.460860   0.456358   0.002459   0.000026
    15  F   -0.038209   0.460860   8.895354  -0.026970   0.000004   0.000000
    16  F   -0.035346   0.456358  -0.026970   8.897714   0.000004  -0.000000
    17  C    0.004446   0.002459   0.000004   0.000004   5.588724   0.193281
    18  C    0.000047   0.000026   0.000000  -0.000000   0.193281   5.119533
    19  C   -0.000079   0.000010  -0.000000   0.000000   0.192749   0.069684
    20  C    0.000004  -0.000002  -0.000000   0.000000   0.101812   0.292081
    21  H   -0.000289   0.000011  -0.000000   0.000000  -0.081175   0.463729
    22  C    0.000001  -0.000001   0.000000  -0.000000   0.102076  -0.126193
    23  H   -0.000002   0.000014   0.000000  -0.000000  -0.081273   0.013271
    24  C   -0.000000   0.000000   0.000000   0.000000  -0.192554   0.141158
    25  H   -0.000000  -0.000000   0.000000  -0.000000   0.016472  -0.065329
    26  H   -0.000000  -0.000000  -0.000000   0.000000   0.016503  -0.002447
    27  H    0.005176   0.000263   0.000001   0.000001   0.004693   0.002124
    28  H   -0.033594   0.002213   0.000382   0.000537   0.000006   0.000001
    29  H   -0.000016   0.000266   0.000001   0.000001   0.004885  -0.000502
    30  H    0.000161   0.002053   0.000180   0.000842   0.000006  -0.000000
    31  N    0.000000   0.000000   0.000000   0.000000  -0.000365   0.007517
    32  H   -0.000000  -0.000000   0.000000  -0.000000  -0.000019  -0.000482
    33  H   -0.000000  -0.000000  -0.000000   0.000000  -0.000019   0.000472
              19         20         21         22         23         24
     1  C   -0.023828  -0.000143  -0.000293   0.002142  -0.000676  -0.000074
     2  C    0.008069   0.002118  -0.000843  -0.000172  -0.000254  -0.000055
     3  C   -0.065631   0.009834  -0.011783   0.009895  -0.012015   0.001761
     4  C   -0.000433  -0.000028  -0.000026  -0.000614   0.001446  -0.000007
     5  C    0.000288  -0.000002   0.000000  -0.000037   0.000901   0.000001
     6  C   -0.000044   0.000000   0.000001  -0.000000  -0.000120  -0.000000
     7  H   -0.000006  -0.000000   0.000000  -0.000000   0.000006  -0.000000
     8  C    0.000002  -0.000000  -0.000126   0.000000   0.000001  -0.000000
     9  C   -0.000201  -0.000570   0.001474  -0.000022  -0.000030  -0.000011
    10  C    0.000025  -0.000037   0.000932  -0.000002   0.000000   0.000001
    11  H    0.000000  -0.000000   0.000006  -0.000000   0.000000  -0.000000
    12  N    0.000043   0.000001  -0.000001   0.000004  -0.000294  -0.000000
    13  N   -0.000079   0.000004  -0.000289   0.000001  -0.000002  -0.000000
    14  B    0.000010  -0.000002   0.000011  -0.000001   0.000014   0.000000
    15  F   -0.000000  -0.000000  -0.000000   0.000000   0.000000   0.000000
    16  F    0.000000   0.000000   0.000000  -0.000000  -0.000000   0.000000
    17  C    0.192749   0.101812  -0.081175   0.102076  -0.081273  -0.192554
    18  C    0.069684   0.292081   0.463729  -0.126193   0.013271   0.141158
    19  C    5.120322  -0.126259   0.013208   0.291415   0.464139   0.141441
    20  C   -0.126259   5.337589  -0.056800   0.024102  -0.002083   0.139342
    21  H    0.013208  -0.056800   0.626430  -0.002066  -0.000145   0.015245
    22  C    0.291415   0.024102  -0.002066   5.338041  -0.057070   0.139212
    23  H    0.464139  -0.002083  -0.000145  -0.057070   0.626448   0.015259
    24  C    0.141441   0.139342   0.015245   0.139212   0.015259   5.211594
    25  H   -0.002448   0.465087  -0.012458   0.015126   0.000016  -0.078678
    26  H   -0.065510   0.015144   0.000016   0.465274  -0.012453  -0.078784
    27  H   -0.000472   0.001525  -0.002832   0.000019  -0.000013  -0.000080
    28  H   -0.000000   0.000000  -0.000001   0.000000  -0.000000   0.000000
    29  H    0.002037   0.000024  -0.000014   0.001494  -0.002797  -0.000077
    30  H    0.000001   0.000000  -0.000000   0.000000  -0.000001   0.000000
    31  N    0.007513  -0.111566  -0.000089  -0.111421  -0.000088   0.500575
    32  H    0.000484   0.012076   0.000009  -0.026664  -0.000016  -0.000222
    33  H   -0.000470  -0.026752  -0.000015   0.012080   0.000009  -0.000156
              25         26         27         28         29         30
     1  C    0.000001   0.000005  -0.000476   0.000030  -0.036714   0.003395
     2  C    0.000002  -0.000001  -0.036773   0.003379  -0.000488   0.000031
     3  C   -0.000311  -0.000311  -0.020089  -0.000480  -0.020145  -0.000477
     4  C   -0.000000  -0.000010  -0.000000  -0.000001   0.451437   0.010739
     5  C   -0.000000  -0.000001   0.000000   0.000000  -0.062580  -0.054972
     6  C    0.000000   0.000000  -0.000000   0.000008   0.011815   0.428285
     7  H   -0.000000  -0.000000  -0.000000  -0.000000  -0.005008  -0.003703
     8  C    0.000000   0.000000   0.011813   0.428067  -0.000000   0.000009
     9  C   -0.000006  -0.000000   0.451518   0.010746  -0.000000  -0.000001
    10  C   -0.000001   0.000000  -0.062555  -0.054898   0.000000   0.000000
    11  H   -0.000000  -0.000000  -0.005014  -0.003699  -0.000000  -0.000000
    12  N   -0.000000  -0.000000  -0.000016   0.000162   0.005172  -0.033653
    13  N   -0.000000  -0.000000   0.005176  -0.033594  -0.000016   0.000161
    14  B   -0.000000  -0.000000   0.000263   0.002213   0.000266   0.002053
    15  F    0.000000  -0.000000   0.000001   0.000382   0.000001   0.000180
    16  F   -0.000000   0.000000   0.000001   0.000537   0.000001   0.000842
    17  C    0.016472   0.016503   0.004693   0.000006   0.004885   0.000006
    18  C   -0.065329  -0.002447   0.002124   0.000001  -0.000502  -0.000000
    19  C   -0.002448  -0.065510  -0.000472  -0.000000   0.002037   0.000001
    20  C    0.465087   0.015144   0.001525   0.000000   0.000024   0.000000
    21  H   -0.012458   0.000016  -0.002832  -0.000001  -0.000014  -0.000000
    22  C    0.015126   0.465274   0.000019   0.000000   0.001494   0.000000
    23  H    0.000016  -0.012453  -0.000013  -0.000000  -0.002797  -0.000001
    24  C   -0.078678  -0.078784  -0.000080   0.000000  -0.000077   0.000000
    25  H    0.633476  -0.000160   0.000049  -0.000000  -0.000001  -0.000000
    26  H   -0.000160   0.633565  -0.000001  -0.000000   0.000050  -0.000000
    27  H    0.000049  -0.000001   0.596802  -0.000123  -0.000001  -0.000000
    28  H   -0.000000  -0.000000  -0.000123   0.560213  -0.000000   0.000000
    29  H   -0.000001   0.000050  -0.000001  -0.000000   0.596791  -0.000124
    30  H   -0.000000  -0.000000  -0.000000   0.000000  -0.000124   0.560426
    31  N   -0.010754  -0.010709  -0.000001   0.000000  -0.000001   0.000000
    32  H   -0.000254   0.004641   0.000000  -0.000000  -0.000000  -0.000000
    33  H    0.004670  -0.000257  -0.000000  -0.000000  -0.000000   0.000000
              31         32         33
     1  C   -0.000000  -0.000000   0.000000
     2  C   -0.000000   0.000000  -0.000000
     3  C    0.000016   0.000000   0.000000
     4  C    0.000000   0.000000   0.000000
     5  C    0.000000   0.000000   0.000000
     6  C    0.000000  -0.000000   0.000000
     7  H   -0.000000  -0.000000  -0.000000
     8  C    0.000000   0.000000   0.000000
     9  C    0.000000  -0.000000  -0.000000
    10  C    0.000000   0.000000  -0.000000
    11  H   -0.000000   0.000000  -0.000000
    12  N    0.000000  -0.000000  -0.000000
    13  N    0.000000  -0.000000  -0.000000
    14  B    0.000000  -0.000000  -0.000000
    15  F    0.000000   0.000000  -0.000000
    16  F    0.000000  -0.000000   0.000000
    17  C   -0.000365  -0.000019  -0.000019
    18  C    0.007517  -0.000482   0.000472
    19  C    0.007513   0.000484  -0.000470
    20  C   -0.111566   0.012076  -0.026752
    21  H   -0.000089   0.000009  -0.000015
    22  C   -0.111421  -0.026664   0.012080
    23  H   -0.000088  -0.000016   0.000009
    24  C    0.500575  -0.000222  -0.000156
    25  H   -0.010754  -0.000254   0.004670
    26  H   -0.010709   0.004641  -0.000257
    27  H   -0.000001   0.000000  -0.000000
    28  H    0.000000  -0.000000  -0.000000
    29  H   -0.000001  -0.000000  -0.000000
    30  H    0.000000  -0.000000   0.000000
    31  N    6.112713   0.369755   0.369864
    32  H    0.369755   0.496993  -0.028733
    33  H    0.369864  -0.028733   0.497160
 Mulliken charges:
               1
     1  C   -0.013419
     2  C   -0.013866
     3  C    0.205471
     4  C   -0.045039
     5  C   -0.078839
     6  C    0.095769
     7  H    0.051714
     8  C    0.095714
     9  C   -0.044797
    10  C   -0.078552
    11  H    0.051687
    12  N   -0.203174
    13  N   -0.203951
    14  B    0.244207
    15  F   -0.249046
    16  F   -0.250208
    17  C   -0.074519
    18  C   -0.026187
    19  C   -0.026050
    20  C   -0.076497
    21  H    0.047894
    22  C   -0.076620
    23  H    0.047818
    24  C    0.045110
    25  H    0.035502
    26  H    0.035446
    27  H    0.054464
    28  H    0.087050
    29  H    0.054494
    30  H    0.086805
    31  N   -0.122961
    32  H    0.172433
    33  H    0.172147
 Sum of Mulliken charges =  -0.00000
 Mulliken charges with hydrogens summed into heavy atoms:
               1
     1  C   -0.013419
     2  C   -0.013866
     3  C    0.205471
     4  C    0.009455
     5  C   -0.027125
     6  C    0.182574
     8  C    0.182764
     9  C    0.009667
    10  C   -0.026864
    12  N   -0.203174
    13  N   -0.203951
    14  B    0.244207
    15  F   -0.249046
    16  F   -0.250208
    17  C   -0.074519
    18  C    0.021707
    19  C    0.021767
    20  C   -0.040994
    22  C   -0.041174
    24  C    0.045110
    31  N    0.221619
 Electronic spatial extent (au):  <R**2>=           6177.2081
 Charge=              0.0000 electrons
 Dipole moment (field-independent basis, Debye):
    X=            -12.7028    Y=             -0.2370    Z=             -0.4152  Tot=             12.7118
 Quadrupole moment (field-independent basis, Debye-Ang):
   XX=            -88.1454   YY=            -99.9032   ZZ=           -125.5224
   XY=              1.6497   XZ=              1.2641   YZ=             -4.1814
 Traceless Quadrupole moment (field-independent basis, Debye-Ang):
   XX=             16.3783   YY=              4.6205   ZZ=            -20.9988
   XY=              1.6497   XZ=              1.2641   YZ=             -4.1814
 Octapole moment (field-independent basis, Debye-Ang**2):
  XXX=           -365.5154  YYY=             -0.1965  ZZZ=             -0.0382  XYY=             32.0920
  XXY=             -9.8717  XXZ=            -11.5072  XZZ=            -15.6099  YZZ=             -0.2412
  YYZ=             -0.6427  XYZ=             25.5931
 Hexadecapole moment (field-independent basis, Debye-Ang**3):
 XXXX=          -3593.5710 YYYY=          -1933.2745 ZZZZ=           -343.9423 XXXY=             64.8173
 XXXZ=             65.8866 YYYX=              2.6978 YYYZ=             25.9250 ZZZX=              2.1329
 ZZZY=            -22.0453 XXYY=          -1095.9329 XXZZ=           -995.1745 YYZZ=           -454.8648
 XXYZ=           -101.3442 YYXZ=             -0.7290 ZZXY=             -0.0110
 N-N= 1.590167935590D+03 E-N=-5.435456248843D+03  KE= 9.575287097501D+02
 Unable to Open any file for archive entry.
 1\1\GINC-X1002C6S2B0N1\SP\RM062X TD-FC\def2SVP\C15H12B1F2N3\1008721\10
 -Oct-2025\0\\# td=(nstates=6) scrf=(smd,solvent=ethanol) def2svp m062x
 \\BDP-NH2_ethanol_m062x_m062x_m062x\\0,1\C,0,0.621981,-1.216876,-0.058
 2\C,0,0.625721,1.218785,0.042418\C,0,-0.096014,0.001917,-0.004138\C,0,
 0.172749,-2.5483,-0.232173\C,0,1.303098,-3.359958,-0.281614\C,0,2.4139
 54,-2.509225,-0.157574\H,0,1.337453,-4.43896,-0.408998\C,0,2.422327,2.
 506716,0.113028\C,0,0.181514,2.554683,0.193718\C,0,1.314712,3.363344,0
 .224188\H,0,1.352807,4.444626,0.329187\N,0,2.007723,-1.240009,-0.02674
 4\N,0,2.01166,1.236574,0.007158\B,0,2.943603,-0.00389,0.021076\F,0,3.7
 05932,-0.012274,1.184202\F,0,3.784353,0.001829,-1.085708\C,0,-1.557058
 ,0.002491,-0.00024\C,0,-2.290999,0.896703,-0.808202\C,0,-2.284886,-0.8
 93486,0.811385\C,0,-3.673206,0.891229,-0.817532\H,0,-1.760316,1.575407
 ,-1.478159\C,0,-3.66701,-0.888847,0.830541\H,0,-1.748702,-1.574742,1.4
 74381\C,0,-4.39956,0.002061,0.010189\H,0,-4.219037,1.571051,-1.474697\
 H,0,-4.207907,-1.57075,1.489635\H,0,-0.853432,2.873597,0.289846\H,0,3.
 484142,2.751798,0.121378\H,0,-0.8637,-2.860919,-0.333347\H,0,3.47486,-
 2.757772,-0.171903\N,0,-5.751475,0.015325,0.029523\H,0,-6.261194,-0.69
 7937,0.535649\H,0,-6.26486,0.587394,-0.629117\\Version=ES64L-G16RevC.0
 1\State=1-A\HF=-966.7491161\RMSD=4.083e-09\PG=C01 [X(C15H12B1F2N3)]\\@
 The archive entry for this job was punched.


 ... IT CAN BE VERY DIFFICULT, IN THESE COMPLEX TIMES,
 TO UNDERSTAND JUST HOW SCIENTISTS DO WHAT THEY DO.

                     DON MOSER IN THE FEBRUARY 1979 SMITHSONIAN
 Job cpu time:       0 days  1 hours 48 minutes  0.9 seconds.
 Elapsed time:       0 days  0 hours  3 minutes 26.8 seconds.
 File lengths (MBytes):  RWF=   1041 Int=      0 D2E=      0 Chk=     36 Scr=      1
 Normal termination of Gaussian 16 at Fri Oct 10 15:02:51 2025.
