 Entering Gaussian System, Link 0=g16
 Initial command:
 /home/users/sutd/1008721/g16/l1.exe "/home/users/sutd/1008721/scratch/g16/scratch/Gau-1512873.inp" -scrdir="/home/users/sutd/1008721/scratch/g16/scratch/"
 Entering Link 1 = /home/users/sutd/1008721/g16/l1.exe PID=   1512874.
  
 Copyright (c) 1988-2019, Gaussian, Inc.  All Rights Reserved.
  
 This is part of the Gaussian(R) 16 program.  It is based on
 the Gaussian(R) 09 system (copyright 2009, Gaussian, Inc.),
 the Gaussian(R) 03 system (copyright 2003, Gaussian, Inc.),
 the Gaussian(R) 98 system (copyright 1998, Gaussian, Inc.),
 the Gaussian(R) 94 system (copyright 1995, Gaussian, Inc.),
 the Gaussian 92(TM) system (copyright 1992, Gaussian, Inc.),
 the Gaussian 90(TM) system (copyright 1990, Gaussian, Inc.),
 the Gaussian 88(TM) system (copyright 1988, Gaussian, Inc.),
 the Gaussian 86(TM) system (copyright 1986, Carnegie Mellon
 University), and the Gaussian 82(TM) system (copyright 1983,
 Carnegie Mellon University). Gaussian is a federally registered
 trademark of Gaussian, Inc.
  
 This software contains proprietary and confidential information,
 including trade secrets, belonging to Gaussian, Inc.
  
 This software is provided under written license and may be
 used, copied, transmitted, or stored only in accord with that
 written license.
  
 The following legend is applicable only to US Government
 contracts under FAR:
  
                    RESTRICTED RIGHTS LEGEND
  
 Use, reproduction and disclosure by the US Government is
 subject to restrictions as set forth in subparagraphs (a)
 and (c) of the Commercial Computer Software - Restricted
 Rights clause in FAR 52.227-19.
  
 Gaussian, Inc.
 340 Quinnipiac St., Bldg. 40, Wallingford CT 06492
  
  
 ---------------------------------------------------------------
 Warning -- This program may not be used in any manner that
 competes with the business of Gaussian, Inc. or will provide
 assistance to any competitor of Gaussian, Inc.  The licensee
 of this program is prohibited from giving any competitor of
 Gaussian, Inc. access to this program.  By using this program,
 the user acknowledges that Gaussian, Inc. is engaged in the
 business of creating and licensing software in the field of
 computational chemistry and represents and warrants to the
 licensee that it is not a competitor of Gaussian, Inc. and that
 it will not use this program in any manner prohibited above.
 ---------------------------------------------------------------
  

 Cite this work as:
 Gaussian 16, Revision C.01,
 M. J. Frisch, G. W. Trucks, H. B. Schlegel, G. E. Scuseria, 
 M. A. Robb, J. R. Cheeseman, G. Scalmani, V. Barone, 
 G. A. Petersson, H. Nakatsuji, X. Li, M. Caricato, A. V. Marenich, 
 J. Bloino, B. G. Janesko, R. Gomperts, B. Mennucci, H. P. Hratchian, 
 J. V. Ortiz, A. F. Izmaylov, J. L. Sonnenberg, D. Williams-Young, 
 F. Ding, F. Lipparini, F. Egidi, J. Goings, B. Peng, A. Petrone, 
 T. Henderson, D. Ranasinghe, V. G. Zakrzewski, J. Gao, N. Rega, 
 G. Zheng, W. Liang, M. Hada, M. Ehara, K. Toyota, R. Fukuda, 
 J. Hasegawa, M. Ishida, T. Nakajima, Y. Honda, O. Kitao, H. Nakai, 
 T. Vreven, K. Throssell, J. A. Montgomery, Jr., J. E. Peralta, 
 F. Ogliaro, M. J. Bearpark, J. J. Heyd, E. N. Brothers, K. N. Kudin, 
 V. N. Staroverov, T. A. Keith, R. Kobayashi, J. Normand, 
 K. Raghavachari, A. P. Rendell, J. C. Burant, S. S. Iyengar, 
 J. Tomasi, M. Cossi, J. M. Millam, M. Klene, C. Adamo, R. Cammi, 
 J. W. Ochterski, R. L. Martin, K. Morokuma, O. Farkas, 
 J. B. Foresman, and D. J. Fox, Gaussian, Inc., Wallingford CT, 2019.
 
 ******************************************
 Gaussian 16:  ES64L-G16RevC.01  3-Jul-2019
                10-Oct-2025 
 ******************************************
 %nprocshared=32
 Will use up to   32 processors via shared memory.
 %mem=64GB
 %chk=06BDP-NH2_ethanol_m062x_m062x_m062x.chk
 ----------------------------------------------------------------------
 # td=(nstates=3,root=1) scrf=(smd,solvent=ethanol,correctedlr,noneq=sa
 ve) def2svp m062x
 ----------------------------------------------------------------------
 1/30=1,38=1,172=1/1;
 2/12=2,17=6,18=5,40=1/2;
 3/5=43,7=101,11=9,25=1,30=1,70=9032201,71=1,72=4,74=-55/1,2,3,8;
 4//1;
 5/5=2,38=5,53=4/2;
 8/6=1,10=1,107=1,108=3/1;
 9/8=1,15=1,41=3,42=1,70=2,73=22/14;
 10/5=4,13=10,28=1,74=20/2;
 6/7=2,8=2,9=2,10=2,22=-1/1;
 99/5=1,9=1/99;
 ---------------------------------
 BDP-NH2_ethanol_m062x_m062x_m062x
 ---------------------------------
 Symbolic Z-matrix:
 Charge =  0 Multiplicity = 1
 C                     0.62194  -1.20661  -0.12111 
 C                     0.63919   1.22416   0.01443 
 C                    -0.11002   0.01274  -0.03425 
 C                     0.17074  -2.54814  -0.3231 
 C                     1.29952  -3.35232  -0.38503 
 C                     2.42336  -2.50327  -0.23091 
 H                     1.33994  -4.42867  -0.53734 
 C                     2.46564   2.48884   0.07563 
 C                     0.21189   2.59054   0.08243 
 C                     1.35481   3.37233   0.11303 
 H                     1.41597   4.45727   0.16393 
 N                     2.01691  -1.23533  -0.07277 
 N                     2.03734   1.22096   0.02246 
 B                     2.95578  -0.0221    0.10536 
 F                     3.59746  -0.0689    1.34094 
 F                     3.91011   0.00809  -0.90462 
 C                    -1.57828   0.01681  -0.00586 
 C                    -2.33232   0.89294  -0.81004 
 C                    -2.28999  -0.86955   0.82577 
 C                    -3.71912   0.88732  -0.78699 
 H                    -1.82007   1.57276  -1.49411 
 C                    -3.67631  -0.87941   0.86014 
 H                    -1.73993  -1.55152   1.47803 
 C                    -4.42574   0.00211   0.05352 
 H                    -4.2784    1.56862  -1.43192 
 H                    -4.20106  -1.56852   1.52548 
 H                    -0.82086   2.92657   0.11379 
 H                     3.53016   2.72418   0.09821 
 H                    -0.86748  -2.85138  -0.43129 
 H                     3.48332  -2.75798  -0.23875 
 N                    -5.79321   0.02899   0.1172 
 H                    -6.25924  -0.77911   0.51437 
 H                    -6.2885    0.47241  -0.64834 
 
                          Input orientation:                          
 ---------------------------------------------------------------------
 Center     Atomic      Atomic             Coordinates (Angstroms)
 Number     Number       Type             X           Y           Z
 ---------------------------------------------------------------------
      1          6           0        0.621942   -1.206612   -0.121114
      2          6           0        0.639190    1.224157    0.014432
      3          6           0       -0.110022    0.012736   -0.034248
      4          6           0        0.170737   -2.548141   -0.323101
      5          6           0        1.299519   -3.352317   -0.385027
      6          6           0        2.423360   -2.503271   -0.230905
      7          1           0        1.339936   -4.428672   -0.537343
      8          6           0        2.465643    2.488840    0.075632
      9          6           0        0.211887    2.590539    0.082431
     10          6           0        1.354810    3.372325    0.113027
     11          1           0        1.415973    4.457272    0.163929
     12          7           0        2.016910   -1.235332   -0.072766
     13          7           0        2.037335    1.220958    0.022463
     14          5           0        2.955782   -0.022095    0.105362
     15          9           0        3.597464   -0.068900    1.340936
     16          9           0        3.910109    0.008087   -0.904619
     17          6           0       -1.578278    0.016807   -0.005856
     18          6           0       -2.332325    0.892942   -0.810039
     19          6           0       -2.289989   -0.869548    0.825767
     20          6           0       -3.719121    0.887323   -0.786989
     21          1           0       -1.820072    1.572755   -1.494106
     22          6           0       -3.676307   -0.879409    0.860137
     23          1           0       -1.739933   -1.551522    1.478031
     24          6           0       -4.425737    0.002110    0.053520
     25          1           0       -4.278396    1.568615   -1.431923
     26          1           0       -4.201057   -1.568522    1.525477
     27          1           0       -0.820862    2.926567    0.113794
     28          1           0        3.530160    2.724177    0.098205
     29          1           0       -0.867484   -2.851383   -0.431289
     30          1           0        3.483317   -2.757982   -0.238754
     31          7           0       -5.793212    0.028989    0.117200
     32          1           0       -6.259241   -0.779109    0.514373
     33          1           0       -6.288497    0.472406   -0.648335
 ---------------------------------------------------------------------
                    Distance matrix (angstroms):
                    1          2          3          4          5
     1  C    0.000000
     2  C    2.434606   0.000000
     3  C    1.424825   1.425212   0.000000
     4  C    1.429715   3.816230   2.592364   0.000000
     5  C    2.265571   4.641090   3.665165   1.387329   0.000000
     6  C    2.222270   4.139707   3.575890   2.254955   1.416916
     7  H    3.327226   5.722760   4.699105   2.224707   1.087830
     8  C    4.134526   2.222408   3.574523   5.549483   5.974208
     9  C    3.824648   1.433252   2.600444   5.154821   6.059620
    10  C    4.643122   2.266376   3.668005   6.053442   6.743287
    11  H    5.726370   3.328479   4.703385   7.131874   7.829725
    12  N    1.396101   2.820426   2.466373   2.279142   2.256941
    13  N    2.813725   1.398172   2.464581   4.220155   4.650297
    14  B    2.627010   2.632111   3.069179   3.784305   3.751542
    15  F    3.505098   3.490415   3.955155   4.545120   4.363522
    16  F    3.591854   3.608655   4.113274   4.566768   4.286895
    17  C    2.520120   2.524930   1.468536   3.120682   4.447076
    18  C    3.689233   3.101509   2.513015   4.282929   5.602959
    19  C    3.080509   3.690793   2.504058   3.192608   4.529319
    20  C    4.865468   4.444166   3.789079   5.210432   6.582011
    21  H    3.946317   2.906059   2.736625   4.724019   5.934496
    22  C    4.420957   4.874805   3.783416   4.357117   5.694256
    23  H    2.873096   3.937860   2.718548   2.808556   3.994010
    24  C    5.193320   5.210414   4.316620   5.270028   6.650042
    25  H    5.782164   5.137436   4.663646   6.162138   7.511638
    26  H    5.109164   5.788809   4.655071   4.846594   6.090015
    27  H    4.384066   2.244955   3.002935   5.580912   6.645993
    28  H    4.894582   3.258034   4.540967   6.265825   6.490998
    29  H    2.240507   4.367924   2.989075   1.086997   2.224630
    30  H    3.257001   4.900060   4.542113   3.320291   2.267951
    31  N    6.537408   6.543301   5.685231   6.511847   7.873519
    32  H    6.923675   7.200789   6.224219   6.721269   8.035246
    33  H    7.131005   6.999803   6.225910   7.138010   8.501519
                    6          7          8          9         10
     6  C    0.000000
     7  H    2.230444   0.000000
     8  C    5.001692   7.035263   0.000000
     9  C    5.561986   7.136241   2.256060   0.000000
    10  C    5.981866   7.828075   1.419822   1.385063   0.000000
    11  H    7.044138   8.913897   2.232561   2.222871   1.087861
    12  N    1.340850   3.297203   3.754043   4.233141   4.658691
    13  N    3.752745   5.719971   1.339328   2.282895   2.258854
    14  B    2.559840   4.737293   2.558499   3.788844   3.753033
    15  F    3.126558   5.256613   3.069861   4.485374   4.287107
    16  F    2.995202   5.140575   3.033399   4.617377   4.345487
    17  C    4.734400   5.344224   4.740346   3.136333   4.458322
    18  C    5.872495   6.471433   5.133400   3.186119   4.538100
    19  C    5.099144   5.263249   5.870052   4.334067   5.637911
    20  C    7.038141   7.342764   6.446726   4.371460   5.721017
    21  H    6.018005   6.849684   4.655174   2.765901   3.987631
    22  C    6.405719   6.301818   7.048695   5.269100   6.629295
    23  H    4.599924   4.671757   5.998176   4.786854   5.973687
    24  C    7.298490   7.295473   7.326352   5.311154   6.691533
    25  H    7.933236   8.266401   6.971485   4.847704   6.113367
    26  H    6.916757   6.567974   7.937829   6.233317   7.568001
    27  H    6.334582   7.693671   3.315747   1.086494   2.220867
    28  H    5.353460   7.507613   1.090454   3.321000   2.269904
    29  H    3.315266   2.715104   6.315432   5.571666   6.630944
    30  H    1.090160   2.733943   5.353843   6.277905   6.498843
    31  N    8.604974   8.436881   8.617499   6.528703   7.891269
    32  H    8.883453   8.495464   9.327142   7.308666   8.681547
    33  H    9.215495   9.067848   9.012497   6.875718   8.210319
                   11         12         13         14         15
    11  H    0.000000
    12  N    5.729126   0.000000
    13  N    3.298459   2.458220   0.000000
    14  B    4.737000   1.544394   1.547772   0.000000
    15  F    5.160473   2.420179   2.415804   1.393050   0.000000
    16  F    5.211310   2.412939   2.416158   1.389861   2.268522
    17  C    5.358367   3.807585   3.810963   4.535591   5.348785
    18  C    5.263345   4.897853   4.460334   5.444201   6.380770
    19  C    6.522821   4.414809   4.872499   5.362394   5.963937
    20  C    6.325976   6.157746   5.822655   6.795415   7.679508
    21  H    4.641283   4.962660   4.159727   5.283051   6.331050
    22  C    7.409196   5.780113   6.144831   6.729731   7.334565
    23  H    6.913191   4.076618   4.906432   5.125730   5.541188
    24  C    7.347533   6.561624   6.577070   7.381741   8.126145
    25  H    6.581559   7.024265   6.490344   7.564849   8.508782
    26  H    8.349553   6.428725   6.996984   7.458452   7.943541
    27  H    2.710904   5.040750   3.329675   4.791421   5.477253
    28  H    2.734543   4.242272   2.119889   2.805703   3.057808
    29  H    7.680163   3.325641   5.022731   4.786463   5.551464
    30  H    7.516379   2.120463   4.241587   2.807452   3.120835
    31  N    8.460746   7.914076   7.921315   8.749151   9.470581
    32  H    9.297925   8.309485   8.548416   9.255107   9.916765
    33  H    8.711934   8.498672   8.386285   9.288126  10.098635
                   16         17         18         19         20
    16  F    0.000000
    17  C    5.561496   0.000000
    18  C    6.305545   1.408158   0.000000
    19  C    6.496591   1.408458   2.405000   0.000000
    20  C    7.680628   2.439503   1.386999   2.780287   0.000000
    21  H    5.969142   2.166639   1.092015   3.401099   2.139210
    22  C    7.839370   2.440261   2.781547   1.386779   2.415823
    23  H    6.327114   2.165112   3.400235   1.092290   3.872398
    24  C    8.390733   2.848116   2.433452   2.432606   1.410448
    25  H    8.352539   3.425261   2.151852   3.872411   1.092194
    26  H    8.612902   3.425962   3.873706   2.151822   3.407482
    27  H    5.651263   3.009103   2.696965   4.132279   3.656478
    28  H    2.920130   5.782458   6.208628   6.878833   7.530583
    29  H    5.588023   2.985420   4.038463   2.744336   4.715536
    30  H    2.876919   5.776975   6.890378   6.166883   8.090978
    31  N    9.756997   4.216748   3.685638   3.685378   2.419948
    32  H   10.298004   4.776561   4.468836   3.982475   3.304958
    33  H   10.212386   4.775616   3.981745   4.467872   2.606353
                   21         22         23         24         25
    21  H    0.000000
    22  C    3.873135   0.000000
    23  H    4.312902   2.140811   0.000000
    24  C    3.413438   1.410444   3.414169   0.000000
    25  H    2.459114   3.407179   4.964563   2.163836   0.000000
    26  H    4.965339   1.092207   2.461640   2.164260   4.312056
    27  H    2.327353   4.816228   4.770651   4.642328   4.023409
    28  H    5.699667   8.093179   6.925273   8.408801   8.040532
    29  H    4.648656   3.666872   2.469070   4.586788   5.672034
    30  H    6.961115   7.483102   5.628964   8.381925   8.965896
    31  N    4.556903   2.420419   4.558393   1.369221   2.657988
    32  H    5.410312   2.607904   4.685019   2.045587   3.636430
    33  H    4.678987   3.305515   5.413608   2.045398   2.419957
                   26         27         28         29         30
    26  H    0.000000
    27  H    5.798654   0.000000
    28  H    8.957460   4.355754   0.000000
    29  H    4.072760   5.803791   7.120850   0.000000
    30  H    7.973514   7.138932   5.492705   4.356060   0.000000
    31  N    2.658993   5.755018   9.705136   5.732380   9.692673
    32  H    2.425206   6.593062  10.405699   5.853173   9.969984
    33  H    3.639815   6.041422  10.101179   6.362552  10.300073
                   31         32         33
    31  N    0.000000
    32  H    1.013880   0.000000
    33  H    1.013888   1.708519   0.000000
 Stoichiometry    C15H12BF2N3
 Framework group  C1[X(C15H12BF2N3)]
 Deg. of freedom    93
 Full point group                 C1      NOp   1
 Largest Abelian subgroup         C1      NOp   1
 Largest concise Abelian subgroup C1      NOp   1
                         Standard orientation:                         
 ---------------------------------------------------------------------
 Center     Atomic      Atomic             Coordinates (Angstroms)
 Number     Number       Type             X           Y           Z
 ---------------------------------------------------------------------
      1          6           0        0.621942   -1.206612   -0.121114
      2          6           0        0.639190    1.224157    0.014432
      3          6           0       -0.110022    0.012736   -0.034248
      4          6           0        0.170737   -2.548141   -0.323101
      5          6           0        1.299519   -3.352317   -0.385027
      6          6           0        2.423360   -2.503271   -0.230905
      7          1           0        1.339936   -4.428672   -0.537343
      8          6           0        2.465643    2.488840    0.075632
      9          6           0        0.211887    2.590539    0.082431
     10          6           0        1.354810    3.372325    0.113027
     11          1           0        1.415973    4.457272    0.163929
     12          7           0        2.016910   -1.235332   -0.072766
     13          7           0        2.037335    1.220958    0.022463
     14          5           0        2.955782   -0.022095    0.105362
     15          9           0        3.597464   -0.068900    1.340936
     16          9           0        3.910109    0.008087   -0.904619
     17          6           0       -1.578278    0.016807   -0.005856
     18          6           0       -2.332325    0.892942   -0.810039
     19          6           0       -2.289989   -0.869548    0.825767
     20          6           0       -3.719121    0.887323   -0.786989
     21          1           0       -1.820072    1.572755   -1.494106
     22          6           0       -3.676307   -0.879409    0.860137
     23          1           0       -1.739933   -1.551522    1.478031
     24          6           0       -4.425737    0.002110    0.053520
     25          1           0       -4.278396    1.568615   -1.431923
     26          1           0       -4.201057   -1.568522    1.525477
     27          1           0       -0.820862    2.926567    0.113794
     28          1           0        3.530160    2.724177    0.098205
     29          1           0       -0.867484   -2.851383   -0.431289
     30          1           0        3.483317   -2.757982   -0.238754
     31          7           0       -5.793212    0.028989    0.117200
     32          1           0       -6.259241   -0.779109    0.514373
     33          1           0       -6.288497    0.472406   -0.648335
 ---------------------------------------------------------------------
 Rotational constants (GHZ):           0.5783954           0.2122168           0.1650685
 Standard basis: def2SVP (5D, 7F)
 There are   375 symmetry adapted cartesian basis functions of A   symmetry.
 There are   354 symmetry adapted basis functions of A   symmetry.
   354 basis functions,   609 primitive gaussians,   375 cartesian basis functions
    73 alpha electrons       73 beta electrons
       nuclear repulsion energy      1584.4555834972 Hartrees.
 NAtoms=   33 NActive=   33 NUniq=   33 SFac= 1.00D+00 NAtFMM=   60 NAOKFM=F Big=F
 Integral buffers will be    131072 words long.
 Regular integral format.
 Two-electron integral symmetry is turned on.
 ------------------------------------------------------------------------------
 Polarizable Continuum Model (PCM)
 =================================
 Model                : PCM.
 Atomic radii         : SMD-Coulomb.
 Polarization charges : Total charges.
 Charge compensation  : None.
 Solution method      : On-the-fly selection.
 Cavity type          : VdW (van der Waals Surface) (Alpha=1.000).
 Cavity algorithm     : GePol (No added spheres)
                        Default sphere list used, NSphG=   33.
                        Lebedev-Laikov grids with approx.  5.0 points / Ang**2.
                        Smoothing algorithm: York/Karplus (Gamma=1.0000).
                        Polarization charges: spherical gaussians, with
                                              point-specific exponents (IZeta= 3).
                        Self-potential: point-specific (ISelfS= 7).
                        Self-field    : sphere-specific E.n sum rule (ISelfD= 2).
 1st derivatives      : Analytical E(r).r(x)/FMM algorithm (CHGder, D1EAlg=3).
                        Cavity 1st derivative terms included.
 Solvent              : Ethanol, Eps=  24.852000 Eps(inf)=   1.852593
 ------------------------------------------------------------------------------
 ------------------------------------------------------------------------------
 Atomic radii for non-electrostatic terms: SMD-CDS.
 ------------------------------------------------------------------------------
 Nuclear repulsion after PCM non-electrostatic terms =     1584.4548904080 Hartrees.
 One-electron integrals computed using PRISM.
   1 Symmetry operations used in ECPInt.
 ECPInt:  NShTT=   13203 NPrTT=   49137 LenC2=   11953 LenP2D=   30956.
 LDataN:  DoStor=T MaxTD1= 4 Len=   56
 NBasis=   354 RedAO= T EigKep=  2.57D-04  NBF=   354
 NBsUse=   354 1.00D-06 EigRej= -1.00D+00 NBFU=   354
 ExpMin= 8.36D-02 ExpMax= 2.89D+03 ExpMxC= 4.35D+02 IAcc=3 IRadAn=         5 AccDes= 0.00D+00
 Harris functional with IExCor= 1009 and IRadAn=       5 diagonalized for initial guess.
 HarFok:  IExCor= 1009 AccDes= 0.00D+00 IRadAn=         5 IDoV= 1 UseB2=F ITyADJ=14
 ICtDFT=  3500011 ScaDFX=  1.000000  1.000000  1.000000  1.000000
 FoFCou: FMM=F IPFlag=           0 FMFlag=      100000 FMFlg1=           0
         NFxFlg=           0 DoJE=T BraDBF=F KetDBF=T FulRan=T
         wScrn=  0.000000 ICntrl=       500 IOpCl=  0 I1Cent=   200000004 NGrid=           0
         NMat0=    1 NMatS0=      1 NMatT0=    0 NMatD0=    1 NMtDS0=    0 NMtDT0=    0
 Petite list used in FoFCou.
 Requested convergence on RMS density matrix=1.00D-08 within 128 cycles.
 Requested convergence on MAX density matrix=1.00D-06.
 Requested convergence on             energy=1.00D-06.
 No special actions if energy rises.
 Inv3:  Mode=1 IEnd=    19783872.
 Iteration    1 A*A^-1 deviation from unit magnitude is 3.77D-15 for   2542.
 Iteration    1 A*A^-1 deviation from orthogonality  is 2.21D-15 for   1958    858.
 Iteration    1 A^-1*A deviation from unit magnitude is 3.77D-15 for   2542.
 Iteration    1 A^-1*A deviation from orthogonality  is 1.44D-15 for   1710    344.
 Error on total polarization charges =  0.03911
 SCF Done:  E(RM062X) =  -966.747210274     A.U. after   14 cycles
            NFock= 14  Conv=0.41D-08     -V/T= 2.0099
 SMD-CDS (non-electrostatic) energy       (kcal/mol) =      -0.43
 (included in total energy above)
 DoSCS=F DFT=T ScalE2(SS,OS)=  1.000000  1.000000
 ExpMin= 8.36D-02 ExpMax= 2.89D+03 ExpMxC= 4.35D+02 IAcc=3 IRadAn=         5 AccDes= 0.00D+00
 HarFok:  IExCor=  205 AccDes= 0.00D+00 IRadAn=         5 IDoV=-2 UseB2=F ITyADJ=14
 ICtDFT= 12500011 ScaDFX=  1.000000  1.000000  1.000000  1.000000
 GSVD:  LWork=        -609 too small for GESVD, short by        2520 words or        2520 for optimal perf.
 Range of M.O.s used for correlation:    22   354
 NBasis=   354 NAE=    73 NBE=    73 NFC=    21 NFV=     0
 NROrb=    333 NOA=    52 NOB=    52 NVA=   281 NVB=   281

 **** Warning!!: The largest alpha MO coefficient is  0.15974016D+02

 Keep R1, R2, and R3 ints in memory in canonical form, NReq=6183477328.
 NEqPCM:  Using equilibrium solvation (IEInf=0, Eps=  24.8520, EpsInf=   1.8526)
 Orbital symmetries:
       Occupied  (A) (A) (A) (A) (A) (A) (A) (A) (A) (A) (A) (A)
                 (A) (A) (A) (A) (A) (A) (A) (A) (A) (A) (A) (A)
                 (A) (A) (A) (A) (A) (A) (A) (A) (A) (A) (A) (A)
                 (A) (A) (A) (A) (A) (A) (A) (A) (A) (A) (A) (A)
                 (A) (A) (A) (A) (A) (A) (A) (A) (A) (A) (A) (A)
                 (A) (A) (A) (A) (A) (A) (A) (A) (A) (A) (A) (A)
                 (A)
       Virtual   (A) (A) (A) (A) (A) (A) (A) (A) (A) (A) (A) (A)
                 (A) (A) (A) (A) (A) (A) (A) (A) (A) (A) (A) (A)
                 (A) (A) (A) (A) (A) (A) (A) (A) (A) (A) (A) (A)
                 (A) (A) (A) (A) (A) (A) (A) (A) (A) (A) (A) (A)
                 (A) (A) (A) (A) (A) (A) (A) (A) (A) (A) (A) (A)
                 (A) (A) (A) (A) (A) (A) (A) (A) (A) (A) (A) (A)
                 (A) (A) (A) (A) (A) (A) (A) (A) (A) (A) (A) (A)
                 (A) (A) (A) (A) (A) (A) (A) (A) (A) (A) (A) (A)
                 (A) (A) (A) (A) (A) (A) (A) (A) (A) (A) (A) (A)
                 (A) (A) (A) (A) (A) (A) (A) (A) (A) (A) (A) (A)
                 (A) (A) (A) (A) (A) (A) (A) (A) (A) (A) (A) (A)
                 (A) (A) (A) (A) (A) (A) (A) (A) (A) (A) (A) (A)
                 (A) (A) (A) (A) (A) (A) (A) (A) (A) (A) (A) (A)
                 (A) (A) (A) (A) (A) (A) (A) (A) (A) (A) (A) (A)
                 (A) (A) (A) (A) (A) (A) (A) (A) (A) (A) (A) (A)
                 (A) (A) (A) (A) (A) (A) (A) (A) (A) (A) (A) (A)
                 (A) (A) (A) (A) (A) (A) (A) (A) (A) (A) (A) (A)
                 (A) (A) (A) (A) (A) (A) (A) (A) (A) (A) (A) (A)
                 (A) (A) (A) (A) (A) (A) (A) (A) (A) (A) (A) (A)
                 (A) (A) (A) (A) (A) (A) (A) (A) (A) (A) (A) (A)
                 (A) (A) (A) (A) (A) (A) (A) (A) (A) (A) (A) (A)
                 (A) (A) (A) (A) (A) (A) (A) (A) (A) (A) (A) (A)
                 (A) (A) (A) (A) (A) (A) (A) (A) (A) (A) (A) (A)
                 (A) (A) (A) (A) (A)
    12 initial guesses have been made.
 Convergence on wavefunction:    0.000001000000000
 Iteration     1 Dimension    12 NMult     0 NNew     12
 CISAX will form    12 AO SS matrices at one time.
 Iteration     2 Dimension    18 NMult    12 NNew      6
 Iteration     3 Dimension    24 NMult    18 NNew      6
 Iteration     4 Dimension    30 NMult    24 NNew      6
 Iteration     5 Dimension    36 NMult    30 NNew      6
 Iteration     6 Dimension    42 NMult    36 NNew      6
 Iteration     7 Dimension    48 NMult    42 NNew      6
 Iteration     8 Dimension    54 NMult    48 NNew      6
 Iteration     9 Dimension    60 NMult    54 NNew      6
 Iteration    10 Dimension    66 NMult    60 NNew      6
 Iteration    11 Dimension    68 NMult    66 NNew      2
 Iteration    12 Dimension    70 NMult    68 NNew      2
 Iteration    13 Dimension    72 NMult    70 NNew      2
 PCM Corrected Linear-Response:
 The state of interest is root number   1
 Excitation energy =    3.0234 eV, Total energy =  -966.636100834    
 Recompute the excitation energies using the linear response reaction field.
 Convergence on wavefunction:    0.000001000000000
 Iteration     1 Dimension     3 NMult     0 NNew      3
 Iteration     2 Dimension     9 NMult     3 NNew      6
 New state      1 was old state      2
 New state      2 was old state      1
 Iteration     3 Dimension    15 NMult     9 NNew      6
 Iteration     4 Dimension    21 NMult    15 NNew      6
 Iteration     5 Dimension    27 NMult    21 NNew      6
 Iteration     6 Dimension    33 NMult    27 NNew      6
 Iteration     7 Dimension    39 NMult    33 NNew      6
 Iteration     8 Dimension    45 NMult    39 NNew      6
 Iteration     9 Dimension    51 NMult    45 NNew      6
 Iteration    10 Dimension    57 NMult    51 NNew      6
 Iteration    11 Dimension    61 NMult    57 NNew      4
 Iteration    12 Dimension    63 NMult    61 NNew      2
 Iteration    13 Dimension    65 NMult    63 NNew      2
 Iteration    14 Dimension    67 NMult    65 NNew      2
 ***********************************************************************
 Excited states from <AA,BB:AA,BB> singles matrix:
 ***********************************************************************
 
 Ground to excited state transition densities written to RWF  633
 Ground to excited state transition electric dipole moments (Au):
       state          X           Y           Z        Dip. S.      Osc.
         1        -0.3138     -3.3265     -0.2230     11.2136      0.7239
         2         2.9152     -0.3188     -0.0936      8.6087      0.5903
         3        -0.0151     -0.9191     -0.0854      0.8522      0.0844
 Ground to excited state transition velocity dipole moments (Au):
       state          X           Y           Z        Dip. S.      Osc.
         1         0.0302      0.3257      0.0221      0.1075      0.7399
         2        -0.2964      0.0328      0.0094      0.0890      0.5769
         3         0.0025      0.1417      0.0138      0.0203      0.0910
 Ground to excited state transition magnetic dipole moments (Au):
       state          X           Y           Z
         1         0.0281      0.0284     -0.4615
         2         0.0581      0.0172     -0.0704
         3        -0.0309     -0.1711      1.4496
 Ground to excited state transition velocity quadrupole moments (Au):
       state          XX          YY          ZZ          XY          XZ          YZ
         1        -0.1268      0.0694     -0.0109      1.0083      0.0588     -0.0536
         2         1.6117     -0.6849      0.0189      0.0825     -0.0051     -0.1022
         3         0.0265      0.0051     -0.0059     -0.1235     -0.0111     -0.0302
 <0|del|b> * <b|rxdel|0> + <0|del|b> * <b|delr+rdel|0>
 Rotatory Strengths (R) in cgs (10**-40 erg-esu-cm/Gauss)
       state          XX          YY          ZZ    R(velocity)    E-M Angle
         1         7.9218   -121.4004    112.7664     -0.2374       90.00
         2         2.9129     40.0780   -161.9612    -39.6567      128.64
         3       -10.4369     51.2811    -61.4433     -6.8664       91.19
 1/2[<0|r|b>*<b|rxdel|0> + (<0|rxdel|b>*<b|r|0>)*]
 Rotatory Strengths (R) in cgs (10**-40 erg-esu-cm/Gauss)
       state          XX          YY          ZZ     R(length)
         1         6.2432     66.8129    -72.7740      0.0940
         2      -119.7087      3.8886     -4.6600    -40.1600
         3        -0.3301   -111.1744     87.5012     -8.0011
  1/2[<0|del|b>*<b|r|0> + (<0|r|b>*<b|del|0>)*] (Au)
       state          X           Y           Z        Dip. S.   Osc.(frdel)
         1        -0.0095     -1.0833     -0.0049      1.0978      0.7318
         2        -0.8640     -0.0105     -0.0009      0.8753      0.5835
         3        -0.0000     -0.1302     -0.0012      0.1314      0.0876

 Excitation energies and oscillator strengths:
 
 Excited State   1:      Singlet-A      2.6349 eV  470.54 nm  f=0.7239  <S**2>=0.000
      72 -> 74         0.68553
      73 -> 74        -0.14881
 This state for optimization and/or second-order correction.
 Total Energy, E(TD-HF/TD-DFT) =  -966.650378483    
 Copying the excited state density for this state as the 1-particle RhoCI density.
 
 Excited State   2:      Singlet-A      2.7988 eV  443.00 nm  f=0.5903  <S**2>=0.000
      72 -> 74         0.14836
      73 -> 74         0.67928
 
 Excited State   3:      Singlet-A      4.0406 eV  306.85 nm  f=0.0844  <S**2>=0.000
      70 -> 74        -0.45581
      71 -> 74         0.53483
 SavETr:  write IOETrn=   770 NScale= 10 NData=  16 NLR=1 NState=    3 LETran=      64.
 NEqPCM:  Using equilibrium solvation (IEInf=0, Eps=  24.8520, EpsInf=   1.8526)
          Differentiating once with respect to electric field.
                with respect to dipole field.
          Electric field/nuclear overlap derivatives assumed to be zero.
          There are     1 degrees of freedom in the 1st order CPHF.  IDoFFX=0 NUNeed=     1.
 LinEq1:  Iter=  0 NonCon=     1 RMS=3.59D-03 Max=2.81D-01 NDo=     1
 AX will form     1 AO Fock derivatives at one time.
 LinEq1:  Iter=  1 NonCon=     1 RMS=1.25D-03 Max=1.16D-01 NDo=     1
 LinEq1:  Iter=  2 NonCon=     1 RMS=7.48D-04 Max=4.09D-02 NDo=     1
 LinEq1:  Iter=  3 NonCon=     1 RMS=1.55D-04 Max=6.14D-03 NDo=     1
 LinEq1:  Iter=  4 NonCon=     1 RMS=8.56D-05 Max=4.34D-03 NDo=     1
 LinEq1:  Iter=  5 NonCon=     1 RMS=3.49D-05 Max=1.10D-03 NDo=     1
 LinEq1:  Iter=  6 NonCon=     1 RMS=1.89D-05 Max=9.24D-04 NDo=     1
 LinEq1:  Iter=  7 NonCon=     1 RMS=9.71D-06 Max=4.68D-04 NDo=     1
 LinEq1:  Iter=  8 NonCon=     1 RMS=4.78D-06 Max=3.09D-04 NDo=     1
 LinEq1:  Iter=  9 NonCon=     1 RMS=1.89D-06 Max=1.10D-04 NDo=     1
 LinEq1:  Iter= 10 NonCon=     1 RMS=8.49D-07 Max=3.28D-05 NDo=     1
 LinEq1:  Iter= 11 NonCon=     1 RMS=3.02D-07 Max=8.71D-06 NDo=     1
 LinEq1:  Iter= 12 NonCon=     1 RMS=9.21D-08 Max=3.00D-06 NDo=     1
 LinEq1:  Iter= 13 NonCon=     1 RMS=5.12D-08 Max=2.24D-06 NDo=     1
 LinEq1:  Iter= 14 NonCon=     1 RMS=1.80D-08 Max=1.16D-06 NDo=     1
 LinEq1:  Iter= 15 NonCon=     1 RMS=7.12D-09 Max=4.28D-07 NDo=     1
 LinEq1:  Iter= 16 NonCon=     1 RMS=3.92D-09 Max=2.50D-07 NDo=     1
 LinEq1:  Iter= 17 NonCon=     1 RMS=1.36D-09 Max=4.47D-08 NDo=     1
 LinEq1:  Iter= 18 NonCon=     1 RMS=7.81D-10 Max=2.47D-08 NDo=     1
 LinEq1:  Iter= 19 NonCon=     1 RMS=3.48D-10 Max=1.33D-08 NDo=     1
 LinEq1:  Iter= 20 NonCon=     1 RMS=1.47D-10 Max=3.22D-09 NDo=     1
 LinEq1:  Iter= 21 NonCon=     1 RMS=6.47D-11 Max=2.41D-09 NDo=     1
 LinEq1:  Iter= 22 NonCon=     0 RMS=2.39D-11 Max=9.93D-10 NDo=     1
 Linear equations converged to 1.000D-10 1.000D-09 after    22 iterations.
 PCM Corrected Linear-Response - Equilibrium solvation:
 Corrected transition energy               =    2.9917          eV
 Total energy after correction             = -966.637268817     a.u.
 NEqPCM:  Using non-equilibrium solvation (IEInf=1, Eps=  24.8520, EpsInf=   1.8526)
 Inv3:  Mode=1 IEnd=    19783872.
 Iteration    1 A*A^-1 deviation from unit magnitude is 4.00D-15 for   2547.
 Iteration    1 A*A^-1 deviation from orthogonality  is 2.24D-15 for    990    238.
 Iteration    1 A^-1*A deviation from unit magnitude is 4.00D-15 for   2547.
 Iteration    1 A^-1*A deviation from orthogonality  is 1.49D-15 for   1604   1130.
 End of Minotr F.D. properties file   721 does not exist.
 End of Minotr F.D. properties file   722 does not exist.
 End of Minotr F.D. properties file   788 does not exist.

 **********************************************************************

            Population analysis using the CI Density.

 **********************************************************************

 Orbital symmetries:
       Occupied  (A) (A) (A) (A) (A) (A) (A) (A) (A) (A) (A) (A)
                 (A) (A) (A) (A) (A) (A) (A) (A) (A) (A) (A) (A)
                 (A) (A) (A) (A) (A) (A) (A) (A) (A) (A) (A) (A)
                 (A) (A) (A) (A) (A) (A) (A) (A) (A) (A) (A) (A)
                 (A) (A) (A) (A) (A) (A) (A) (A) (A) (A) (A) (A)
                 (A) (A) (A) (A) (A) (A) (A) (A) (A) (A) (A) (A)
                 (A)
       Virtual   (A) (A) (A) (A) (A) (A) (A) (A) (A) (A) (A) (A)
                 (A) (A) (A) (A) (A) (A) (A) (A) (A) (A) (A) (A)
                 (A) (A) (A) (A) (A) (A) (A) (A) (A) (A) (A) (A)
                 (A) (A) (A) (A) (A) (A) (A) (A) (A) (A) (A) (A)
                 (A) (A) (A) (A) (A) (A) (A) (A) (A) (A) (A) (A)
                 (A) (A) (A) (A) (A) (A) (A) (A) (A) (A) (A) (A)
                 (A) (A) (A) (A) (A) (A) (A) (A) (A) (A) (A) (A)
                 (A) (A) (A) (A) (A) (A) (A) (A) (A) (A) (A) (A)
                 (A) (A) (A) (A) (A) (A) (A) (A) (A) (A) (A) (A)
                 (A) (A) (A) (A) (A) (A) (A) (A) (A) (A) (A) (A)
                 (A) (A) (A) (A) (A) (A) (A) (A) (A) (A) (A) (A)
                 (A) (A) (A) (A) (A) (A) (A) (A) (A) (A) (A) (A)
                 (A) (A) (A) (A) (A) (A) (A) (A) (A) (A) (A) (A)
                 (A) (A) (A) (A) (A) (A) (A) (A) (A) (A) (A) (A)
                 (A) (A) (A) (A) (A) (A) (A) (A) (A) (A) (A) (A)
                 (A) (A) (A) (A) (A) (A) (A) (A) (A) (A) (A) (A)
                 (A) (A) (A) (A) (A) (A) (A) (A) (A) (A) (A) (A)
                 (A) (A) (A) (A) (A) (A) (A) (A) (A) (A) (A) (A)
                 (A) (A) (A) (A) (A) (A) (A) (A) (A) (A) (A) (A)
                 (A) (A) (A) (A) (A) (A) (A) (A) (A) (A) (A) (A)
                 (A) (A) (A) (A) (A) (A) (A) (A) (A) (A) (A) (A)
                 (A) (A) (A) (A) (A) (A) (A) (A) (A) (A) (A) (A)
                 (A) (A) (A) (A) (A) (A) (A) (A) (A) (A) (A) (A)
                 (A) (A) (A) (A) (A)
 The electronic state is 1-A.
 Alpha  occ. eigenvalues --  -25.20351 -25.20207 -14.79599 -14.79547 -14.76613
 Alpha  occ. eigenvalues --  -10.62179 -10.60857 -10.60135 -10.60079 -10.59779
 Alpha  occ. eigenvalues --  -10.59720 -10.57097 -10.56914 -10.56902 -10.56759
 Alpha  occ. eigenvalues --  -10.56722 -10.55536 -10.55514 -10.55364 -10.55317
 Alpha  occ. eigenvalues --   -7.13801  -1.29313  -1.25762  -1.09611  -1.07648
 Alpha  occ. eigenvalues --   -1.02171  -0.95677  -0.90397  -0.88161  -0.86672
 Alpha  occ. eigenvalues --   -0.83976  -0.81847  -0.80936  -0.74526  -0.70068
 Alpha  occ. eigenvalues --   -0.69031  -0.68479  -0.65737  -0.65611  -0.64822
 Alpha  occ. eigenvalues --   -0.61398  -0.60340  -0.59730  -0.58464  -0.57744
 Alpha  occ. eigenvalues --   -0.57648  -0.54094  -0.52900  -0.51682  -0.51386
 Alpha  occ. eigenvalues --   -0.50995  -0.50574  -0.50090  -0.49278  -0.48675
 Alpha  occ. eigenvalues --   -0.47846  -0.47087  -0.46671  -0.46578  -0.45706
 Alpha  occ. eigenvalues --   -0.45631  -0.45079  -0.44388  -0.43061  -0.41829
 Alpha  occ. eigenvalues --   -0.40467  -0.39512  -0.35010  -0.32619  -0.31934
 Alpha  occ. eigenvalues --   -0.31623  -0.26240  -0.25796
 Alpha virt. eigenvalues --   -0.08269   0.01978   0.03332   0.06313   0.08100
 Alpha virt. eigenvalues --    0.10071   0.11250   0.12853   0.13563   0.13669
 Alpha virt. eigenvalues --    0.14262   0.14553   0.15719   0.16764   0.17516
 Alpha virt. eigenvalues --    0.17868   0.18087   0.18606   0.19791   0.20839
 Alpha virt. eigenvalues --    0.21905   0.22163   0.23411   0.24431   0.24554
 Alpha virt. eigenvalues --    0.26166   0.27488   0.28237   0.29765   0.30845
 Alpha virt. eigenvalues --    0.32101   0.32191   0.33369   0.34527   0.34673
 Alpha virt. eigenvalues --    0.35942   0.36313   0.37434   0.40006   0.40735
 Alpha virt. eigenvalues --    0.41053   0.41844   0.43559   0.44135   0.44914
 Alpha virt. eigenvalues --    0.45095   0.45813   0.46101   0.46475   0.47478
 Alpha virt. eigenvalues --    0.47975   0.48947   0.49396   0.50581   0.51052
 Alpha virt. eigenvalues --    0.51919   0.53170   0.53695   0.53804   0.55758
 Alpha virt. eigenvalues --    0.55931   0.56985   0.57103   0.59157   0.59870
 Alpha virt. eigenvalues --    0.60580   0.61683   0.61999   0.62616   0.62974
 Alpha virt. eigenvalues --    0.64057   0.64436   0.65530   0.68267   0.68791
 Alpha virt. eigenvalues --    0.69973   0.70244   0.70412   0.71064   0.71358
 Alpha virt. eigenvalues --    0.72831   0.73096   0.73457   0.74585   0.75751
 Alpha virt. eigenvalues --    0.75940   0.76001   0.76879   0.77193   0.78043
 Alpha virt. eigenvalues --    0.78424   0.79089   0.79852   0.79995   0.81492
 Alpha virt. eigenvalues --    0.81812   0.83875   0.84597   0.86029   0.86688
 Alpha virt. eigenvalues --    0.87302   0.88754   0.89900   0.90652   0.91819
 Alpha virt. eigenvalues --    0.94208   0.94495   0.96964   0.97640   1.01188
 Alpha virt. eigenvalues --    1.01674   1.02809   1.04364   1.04714   1.09144
 Alpha virt. eigenvalues --    1.09865   1.10825   1.11623   1.12423   1.13697
 Alpha virt. eigenvalues --    1.15889   1.18003   1.19556   1.22921   1.24227
 Alpha virt. eigenvalues --    1.25762   1.26372   1.28130   1.28810   1.29821
 Alpha virt. eigenvalues --    1.30254   1.30421   1.31576   1.32657   1.33010
 Alpha virt. eigenvalues --    1.34437   1.35102   1.35364   1.35789   1.37136
 Alpha virt. eigenvalues --    1.38893   1.39742   1.40120   1.42031   1.43269
 Alpha virt. eigenvalues --    1.44521   1.45847   1.52266   1.52976   1.54484
 Alpha virt. eigenvalues --    1.55728   1.59241   1.59682   1.59842   1.64615
 Alpha virt. eigenvalues --    1.66943   1.67448   1.68113   1.68941   1.70392
 Alpha virt. eigenvalues --    1.70955   1.71692   1.72754   1.73550   1.74780
 Alpha virt. eigenvalues --    1.75107   1.76497   1.76890   1.78207   1.78845
 Alpha virt. eigenvalues --    1.79770   1.80142   1.80443   1.81185   1.82108
 Alpha virt. eigenvalues --    1.83224   1.83624   1.84328   1.86997   1.87686
 Alpha virt. eigenvalues --    1.89447   1.89595   1.90147   1.90988   1.91279
 Alpha virt. eigenvalues --    1.93987   1.95146   1.95832   1.96701   1.97190
 Alpha virt. eigenvalues --    1.97699   1.98641   1.99005   2.00164   2.01499
 Alpha virt. eigenvalues --    2.01851   2.02197   2.05471   2.06033   2.07510
 Alpha virt. eigenvalues --    2.09917   2.12183   2.14800   2.15670   2.16133
 Alpha virt. eigenvalues --    2.16982   2.17574   2.18198   2.19877   2.20395
 Alpha virt. eigenvalues --    2.21451   2.22364   2.22653   2.24948   2.28198
 Alpha virt. eigenvalues --    2.28670   2.29590   2.30215   2.33571   2.34592
 Alpha virt. eigenvalues --    2.35032   2.35542   2.36169   2.37094   2.37756
 Alpha virt. eigenvalues --    2.39765   2.40993   2.48436   2.51483   2.54390
 Alpha virt. eigenvalues --    2.56330   2.57461   2.58816   2.60212   2.63307
 Alpha virt. eigenvalues --    2.65100   2.66550   2.67591   2.67989   2.68611
 Alpha virt. eigenvalues --    2.69798   2.70934   2.72462   2.73213   2.74379
 Alpha virt. eigenvalues --    2.74555   2.74858   2.75981   2.80836   2.83091
 Alpha virt. eigenvalues --    2.87304   2.88713   2.89197   2.90305   2.93251
 Alpha virt. eigenvalues --    2.96129   2.98952   3.01052   3.01559   3.07366
 Alpha virt. eigenvalues --    3.10339   3.17953   3.18486   3.18611   3.19884
 Alpha virt. eigenvalues --    3.20821   3.22778   3.25213   3.25701   3.26730
 Alpha virt. eigenvalues --    3.33427   3.42241   3.46557   3.47402   3.51837
 Alpha virt. eigenvalues --    3.52265   3.53640   3.61954   3.69684   3.82366
 Alpha virt. eigenvalues --    3.83116
          Condensed to atoms (all electrons):
               1          2          3          4          5          6
     1  C    5.213241  -0.020250   0.251844   0.366871   0.014732  -0.145121
     2  C   -0.020250   5.208969   0.251595   0.012401  -0.000518  -0.000229
     3  C    0.251844   0.251595   5.577516  -0.124441   0.022158   0.012474
     4  C    0.366871   0.012401  -0.124441   5.178820   0.339714  -0.012526
     5  C    0.014732  -0.000518   0.022158   0.339714   5.048848   0.352372
     6  C   -0.145121  -0.000229   0.012474  -0.012526   0.352372   4.894417
     7  H    0.012206   0.000005  -0.000435  -0.059997   0.453829  -0.055335
     8  C   -0.000321  -0.143797   0.012658   0.000017   0.000000   0.000115
     9  C    0.012846   0.359127  -0.124188  -0.000070   0.000001   0.000021
    10  C   -0.000544   0.017444   0.021999   0.000002  -0.000000  -0.000002
    11  H    0.000005   0.012126  -0.000425  -0.000000   0.000000   0.000000
    12  N    0.428298  -0.004892  -0.086101  -0.092992  -0.061686   0.417324
    13  N   -0.004960   0.426281  -0.087185  -0.000229  -0.000057  -0.000414
    14  B   -0.047054  -0.046403  -0.008999   0.002708  -0.001358  -0.010955
    15  F   -0.003004  -0.002964   0.001470  -0.000029  -0.000121  -0.002000
    16  F   -0.003151  -0.003072   0.001519  -0.000092   0.000205   0.001844
    17  C   -0.070846  -0.070627   0.367430  -0.011692   0.000585  -0.000208
    18  C    0.007487  -0.021363  -0.078106   0.000216   0.000015  -0.000001
    19  C   -0.022780   0.008692  -0.078441  -0.001289   0.000264  -0.000040
    20  C   -0.000170   0.001710   0.010287  -0.000031  -0.000002   0.000000
    21  H   -0.000323  -0.000786  -0.013892   0.000004  -0.000000  -0.000001
    22  C    0.001754  -0.000253   0.010700  -0.000793  -0.000025   0.000000
    23  H   -0.000516  -0.000054  -0.014913   0.002599   0.000718  -0.000114
    24  C   -0.000058  -0.000024   0.001555  -0.000008   0.000001  -0.000000
    25  H    0.000003  -0.000007  -0.000312  -0.000000  -0.000000   0.000000
    26  H   -0.000001   0.000000  -0.000316   0.000008  -0.000001   0.000000
    27  H   -0.000380  -0.036693  -0.019610  -0.000001   0.000000  -0.000000
    28  H    0.000038   0.003577  -0.000434  -0.000000   0.000000   0.000008
    29  H   -0.036649  -0.000407  -0.020238   0.451959  -0.063411   0.011425
    30  H    0.003562   0.000040  -0.000442   0.010043  -0.052162   0.425119
    31  N   -0.000000  -0.000000   0.000013   0.000000   0.000000   0.000000
    32  H   -0.000000   0.000000   0.000000   0.000000   0.000000  -0.000000
    33  H   -0.000000   0.000000  -0.000000   0.000000   0.000000  -0.000000
               7          8          9         10         11         12
     1  C    0.012206  -0.000321   0.012846  -0.000544   0.000005   0.428298
     2  C    0.000005  -0.143797   0.359127   0.017444   0.012126  -0.004892
     3  C   -0.000435   0.012658  -0.124188   0.021999  -0.000425  -0.086101
     4  C   -0.059997   0.000017  -0.000070   0.000002  -0.000000  -0.092992
     5  C    0.453829   0.000000   0.000001  -0.000000   0.000000  -0.061686
     6  C   -0.055335   0.000115   0.000021  -0.000002   0.000000   0.417324
     7  H    0.592819   0.000000  -0.000000   0.000000  -0.000000   0.004558
     8  C    0.000000   4.888703  -0.011448   0.346003  -0.054948  -0.000281
     9  C   -0.000000  -0.011448   5.180444   0.338482  -0.059364  -0.000193
    10  C    0.000000   0.346003   0.338482   5.048513   0.453430  -0.000073
    11  H   -0.000000  -0.054948  -0.059364   0.453430   0.589865   0.000002
    12  N    0.004558  -0.000281  -0.000193  -0.000073   0.000002   6.470062
    13  N    0.000002   0.417042  -0.091988  -0.061445   0.004504  -0.057019
    14  B    0.000174  -0.009535   0.002461  -0.001639   0.000163   0.294217
    15  F    0.000001  -0.000974  -0.000011  -0.000234   0.000001  -0.037250
    16  F    0.000000   0.000824  -0.000100   0.000248   0.000001  -0.037211
    17  C    0.000002  -0.000247  -0.011905   0.000694   0.000002   0.004284
    18  C    0.000000  -0.000049  -0.001423   0.000419  -0.000003  -0.000067
    19  C   -0.000004  -0.000006  -0.000014   0.000025   0.000000   0.000029
    20  C   -0.000000   0.000000  -0.000519  -0.000033  -0.000000   0.000001
    21  H    0.000000  -0.000133   0.002271   0.000911   0.000007   0.000002
    22  C   -0.000000   0.000000  -0.000006  -0.000002  -0.000000   0.000003
    23  H    0.000003  -0.000001  -0.000022   0.000000   0.000000  -0.000277
    24  C   -0.000000  -0.000000  -0.000021   0.000001   0.000000  -0.000000
    25  H   -0.000000   0.000000   0.000015  -0.000001  -0.000000  -0.000000
    26  H   -0.000000   0.000000   0.000000  -0.000000  -0.000000  -0.000000
    27  H   -0.000000   0.011304   0.451678  -0.062628  -0.005039  -0.000015
    28  H   -0.000000   0.423807   0.009909  -0.051297  -0.003555   0.000173
    29  H   -0.004947  -0.000000   0.000002   0.000000  -0.000000   0.005094
    30  H   -0.003604   0.000008  -0.000000   0.000000  -0.000000  -0.032962
    31  N   -0.000000   0.000000   0.000000   0.000000  -0.000000   0.000000
    32  H   -0.000000   0.000000  -0.000000   0.000000   0.000000  -0.000000
    33  H   -0.000000   0.000000   0.000000  -0.000000  -0.000000  -0.000000
              13         14         15         16         17         18
     1  C   -0.004960  -0.047054  -0.003004  -0.003151  -0.070846   0.007487
     2  C    0.426281  -0.046403  -0.002964  -0.003072  -0.070627  -0.021363
     3  C   -0.087185  -0.008999   0.001470   0.001519   0.367430  -0.078106
     4  C   -0.000229   0.002708  -0.000029  -0.000092  -0.011692   0.000216
     5  C   -0.000057  -0.001358  -0.000121   0.000205   0.000585   0.000015
     6  C   -0.000414  -0.010955  -0.002000   0.001844  -0.000208  -0.000001
     7  H    0.000002   0.000174   0.000001   0.000000   0.000002   0.000000
     8  C    0.417042  -0.009535  -0.000974   0.000824  -0.000247  -0.000049
     9  C   -0.091988   0.002461  -0.000011  -0.000100  -0.011905  -0.001423
    10  C   -0.061445  -0.001639  -0.000234   0.000248   0.000694   0.000419
    11  H    0.004504   0.000163   0.000001   0.000001   0.000002  -0.000003
    12  N   -0.057019   0.294217  -0.037250  -0.037211   0.004284  -0.000067
    13  N    6.480890   0.289498  -0.038702  -0.036170   0.004133   0.000035
    14  B    0.289498   3.372969   0.466277   0.448800   0.002694   0.000058
    15  F   -0.038702   0.466277   8.893497  -0.027609   0.000005   0.000000
    16  F   -0.036170   0.448800  -0.027609   8.903981   0.000004  -0.000000
    17  C    0.004133   0.002694   0.000005   0.000004   5.515646   0.212185
    18  C    0.000035   0.000058   0.000000  -0.000000   0.212185   5.146861
    19  C   -0.000051  -0.000004  -0.000000   0.000000   0.211578   0.071493
    20  C    0.000004  -0.000002  -0.000000   0.000000   0.105541   0.284592
    21  H   -0.000220   0.000014  -0.000000   0.000000  -0.081771   0.462184
    22  C    0.000001  -0.000001   0.000000  -0.000000   0.106993  -0.133051
    23  H    0.000003   0.000025   0.000000  -0.000000  -0.081976   0.013897
    24  C   -0.000000   0.000000   0.000000   0.000000  -0.194658   0.138862
    25  H   -0.000000  -0.000000   0.000000  -0.000000   0.016593  -0.066624
    26  H   -0.000000  -0.000000  -0.000000   0.000000   0.016670  -0.002613
    27  H    0.005045   0.000246   0.000001   0.000001   0.004394   0.003247
    28  H   -0.032543   0.002119  -0.000132   0.001283   0.000004   0.000000
    29  H   -0.000016   0.000264   0.000001   0.000001   0.005219  -0.000384
    30  H    0.000169   0.001791  -0.000176   0.001505   0.000004  -0.000000
    31  N    0.000000   0.000000   0.000000   0.000000  -0.000370   0.007674
    32  H   -0.000000  -0.000000   0.000000  -0.000000  -0.000013  -0.000509
    33  H   -0.000000  -0.000000   0.000000  -0.000000  -0.000014   0.000482
              19         20         21         22         23         24
     1  C   -0.022780  -0.000170  -0.000323   0.001754  -0.000516  -0.000058
     2  C    0.008692   0.001710  -0.000786  -0.000253  -0.000054  -0.000024
     3  C   -0.078441   0.010287  -0.013892   0.010700  -0.014913   0.001555
     4  C   -0.001289  -0.000031   0.000004  -0.000793   0.002599  -0.000008
     5  C    0.000264  -0.000002  -0.000000  -0.000025   0.000718   0.000001
     6  C   -0.000040   0.000000  -0.000001   0.000000  -0.000114  -0.000000
     7  H   -0.000004  -0.000000   0.000000  -0.000000   0.000003  -0.000000
     8  C   -0.000006   0.000000  -0.000133   0.000000  -0.000001  -0.000000
     9  C   -0.000014  -0.000519   0.002271  -0.000006  -0.000022  -0.000021
    10  C    0.000025  -0.000033   0.000911  -0.000002   0.000000   0.000001
    11  H    0.000000  -0.000000   0.000007  -0.000000   0.000000   0.000000
    12  N    0.000029   0.000001   0.000002   0.000003  -0.000277  -0.000000
    13  N   -0.000051   0.000004  -0.000220   0.000001   0.000003  -0.000000
    14  B   -0.000004  -0.000002   0.000014  -0.000001   0.000025   0.000000
    15  F   -0.000000  -0.000000  -0.000000   0.000000   0.000000   0.000000
    16  F    0.000000   0.000000   0.000000  -0.000000  -0.000000   0.000000
    17  C    0.211578   0.105541  -0.081771   0.106993  -0.081976  -0.194658
    18  C    0.071493   0.284592   0.462184  -0.133051   0.013897   0.138862
    19  C    5.146467  -0.132660   0.013510   0.283320   0.464690   0.139731
    20  C   -0.132660   5.310120  -0.058407   0.040302  -0.002189   0.160368
    21  H    0.013510  -0.058407   0.638891  -0.002101  -0.000168   0.015490
    22  C    0.283320   0.040302  -0.002101   5.313944  -0.060094   0.158582
    23  H    0.464690  -0.002189  -0.000168  -0.060094   0.638882   0.015617
    24  C    0.139731   0.160368   0.015490   0.158582   0.015617   5.224829
    25  H   -0.002581   0.464498  -0.012538   0.015808   0.000016  -0.080336
    26  H   -0.067344   0.015858   0.000016   0.465294  -0.012492  -0.080610
    27  H   -0.000255   0.001645  -0.002648  -0.000009  -0.000010  -0.000089
    28  H   -0.000000   0.000000  -0.000001   0.000000  -0.000000   0.000000
    29  H    0.002812   0.000005  -0.000012   0.001372  -0.002387  -0.000074
    30  H    0.000001   0.000000  -0.000000   0.000000  -0.000001   0.000000
    31  N    0.007644  -0.107832  -0.000095  -0.107975  -0.000093   0.471841
    32  H    0.000498   0.011201   0.000011  -0.024354  -0.000018  -0.003687
    33  H   -0.000489  -0.024413  -0.000013   0.011155   0.000010  -0.003733
              25         26         27         28         29         30
     1  C    0.000003  -0.000001  -0.000380   0.000038  -0.036649   0.003562
     2  C   -0.000007   0.000000  -0.036693   0.003577  -0.000407   0.000040
     3  C   -0.000312  -0.000316  -0.019610  -0.000434  -0.020238  -0.000442
     4  C   -0.000000   0.000008  -0.000001  -0.000000   0.451959   0.010043
     5  C   -0.000000  -0.000001   0.000000   0.000000  -0.063411  -0.052162
     6  C    0.000000   0.000000  -0.000000   0.000008   0.011425   0.425119
     7  H   -0.000000  -0.000000  -0.000000  -0.000000  -0.004947  -0.003604
     8  C    0.000000   0.000000   0.011304   0.423807  -0.000000   0.000008
     9  C    0.000015   0.000000   0.451678   0.009909   0.000002  -0.000000
    10  C   -0.000001  -0.000000  -0.062628  -0.051297   0.000000   0.000000
    11  H   -0.000000  -0.000000  -0.005039  -0.003555  -0.000000  -0.000000
    12  N   -0.000000  -0.000000  -0.000015   0.000173   0.005094  -0.032962
    13  N   -0.000000  -0.000000   0.005045  -0.032543  -0.000016   0.000169
    14  B   -0.000000  -0.000000   0.000246   0.002119   0.000264   0.001791
    15  F    0.000000  -0.000000   0.000001  -0.000132   0.000001  -0.000176
    16  F   -0.000000   0.000000   0.000001   0.001283   0.000001   0.001505
    17  C    0.016593   0.016670   0.004394   0.000004   0.005219   0.000004
    18  C   -0.066624  -0.002613   0.003247   0.000000  -0.000384  -0.000000
    19  C   -0.002581  -0.067344  -0.000255  -0.000000   0.002812   0.000001
    20  C    0.464498   0.015858   0.001645   0.000000   0.000005   0.000000
    21  H   -0.012538   0.000016  -0.002648  -0.000001  -0.000012  -0.000000
    22  C    0.015808   0.465294  -0.000009   0.000000   0.001372   0.000000
    23  H    0.000016  -0.012492  -0.000010  -0.000000  -0.002387  -0.000001
    24  C   -0.080336  -0.080610  -0.000089   0.000000  -0.000074   0.000000
    25  H    0.642022  -0.000177   0.000032  -0.000000  -0.000001  -0.000000
    26  H   -0.000177   0.642317  -0.000001  -0.000000   0.000032  -0.000000
    27  H    0.000032  -0.000001   0.596709  -0.000118  -0.000001  -0.000000
    28  H   -0.000000  -0.000000  -0.000118   0.550626  -0.000000  -0.000000
    29  H   -0.000001   0.000032  -0.000001  -0.000000   0.598938  -0.000121
    30  H   -0.000000  -0.000000  -0.000000  -0.000000  -0.000121   0.554295
    31  N   -0.010647  -0.010617  -0.000000   0.000000  -0.000000   0.000000
    32  H   -0.000273   0.004672   0.000000  -0.000000  -0.000000   0.000000
    33  H    0.004768  -0.000286  -0.000000  -0.000000  -0.000000   0.000000
              31         32         33
     1  C   -0.000000  -0.000000  -0.000000
     2  C   -0.000000   0.000000   0.000000
     3  C    0.000013   0.000000  -0.000000
     4  C    0.000000   0.000000   0.000000
     5  C    0.000000   0.000000   0.000000
     6  C    0.000000  -0.000000  -0.000000
     7  H   -0.000000  -0.000000  -0.000000
     8  C    0.000000   0.000000   0.000000
     9  C    0.000000  -0.000000   0.000000
    10  C    0.000000   0.000000  -0.000000
    11  H   -0.000000   0.000000  -0.000000
    12  N    0.000000  -0.000000  -0.000000
    13  N    0.000000  -0.000000  -0.000000
    14  B    0.000000  -0.000000  -0.000000
    15  F    0.000000   0.000000   0.000000
    16  F    0.000000  -0.000000  -0.000000
    17  C   -0.000370  -0.000013  -0.000014
    18  C    0.007674  -0.000509   0.000482
    19  C    0.007644   0.000498  -0.000489
    20  C   -0.107832   0.011201  -0.024413
    21  H   -0.000095   0.000011  -0.000013
    22  C   -0.107975  -0.024354   0.011155
    23  H   -0.000093  -0.000018   0.000010
    24  C    0.471841  -0.003687  -0.003733
    25  H   -0.010647  -0.000273   0.004768
    26  H   -0.010617   0.004672  -0.000286
    27  H   -0.000000   0.000000  -0.000000
    28  H    0.000000  -0.000000  -0.000000
    29  H   -0.000000  -0.000000  -0.000000
    30  H    0.000000   0.000000   0.000000
    31  N    6.168923   0.368042   0.368110
    32  H    0.368042   0.505759  -0.027214
    33  H    0.368110  -0.027214   0.505778
 Mulliken charges:
               1
     1  C    0.043242
     2  C    0.050371
     3  C    0.115260
     4  C   -0.061175
     5  C   -0.054100
     6  C    0.111825
     7  H    0.060723
     8  C    0.121257
     9  C   -0.055986
    10  C   -0.050275
    11  H    0.063230
    12  N   -0.213027
    13  N   -0.216608
    14  B    0.241473
    15  F   -0.248048
    16  F   -0.252811
    17  C   -0.050330
    18  C   -0.045517
    19  C   -0.044792
    20  C   -0.079875
    21  H    0.039797
    22  C   -0.080565
    23  H    0.038866
    24  C    0.036418
    25  H    0.029741
    26  H    0.029592
    27  H    0.053194
    28  H    0.096535
    29  H    0.051526
    30  H    0.092931
    31  N   -0.154617
    32  H    0.165886
    33  H    0.165859
 Sum of Mulliken charges =  -0.00000
 Mulliken charges with hydrogens summed into heavy atoms:
               1
     1  C    0.043242
     2  C    0.050371
     3  C    0.115260
     4  C   -0.009649
     5  C    0.006623
     6  C    0.204756
     8  C    0.217792
     9  C   -0.002792
    10  C    0.012955
    12  N   -0.213027
    13  N   -0.216608
    14  B    0.241473
    15  F   -0.248048
    16  F   -0.252811
    17  C   -0.050330
    18  C   -0.005719
    19  C   -0.005926
    20  C   -0.050134
    22  C   -0.050973
    24  C    0.036418
    31  N    0.177127
 Electronic spatial extent (au):  <R**2>=           6240.4943
 Charge=             -0.0000 electrons
 Dipole moment (field-independent basis, Debye):
    X=             -8.8587    Y=             -0.2035    Z=             -1.3140  Tot=              8.9579
 Quadrupole moment (field-independent basis, Debye-Ang):
   XX=            -98.5373   YY=            -94.8753   ZZ=           -126.0080
   XY=              5.0346   XZ=              2.3475   YZ=             -3.6210
 Traceless Quadrupole moment (field-independent basis, Debye-Ang):
   XX=              7.9362   YY=             11.5982   ZZ=            -19.5345
   XY=              5.0346   XZ=              2.3475   YZ=             -3.6210
 Octapole moment (field-independent basis, Debye-Ang**2):
  XXX=           -285.0372  YYY=              3.2960  ZZZ=              1.0024  XYY=             47.2248
  XXY=            -22.8383  XXZ=            -28.9881  XZZ=            -11.8456  YZZ=             -1.0122
  YYZ=             -3.3554  XYZ=             26.0721
 Hexadecapole moment (field-independent basis, Debye-Ang**3):
 XXXX=          -4112.6279 YYYY=          -1853.2769 ZZZZ=           -353.1335 XXXY=            172.3920
 XXXZ=            154.1982 YYYX=             12.9034 YYYZ=             27.3449 ZZZX=              4.2227
 ZZZY=            -20.7290 XXYY=          -1093.9980 XXZZ=          -1019.4570 YYZZ=           -453.1690
 XXYZ=            -93.3740 YYXZ=             -1.9608 ZZXY=              1.9352
 N-N= 1.584454890408D+03 E-N=-5.423634370386D+03  KE= 9.574513720576D+02
 Unable to Open any file for archive entry.
 1\1\GINC-X1002C7S4B1N1\SP\RM062X TD-FC\def2SVP\C15H12B1F2N3\1008721\10
 -Oct-2025\0\\# td=(nstates=3,root=1) scrf=(smd,solvent=ethanol,correct
 edlr,noneq=save) def2svp m062x\\BDP-NH2_ethanol_m062x_m062x_m062x\\0,1
 \C,0,0.621942,-1.206612,-0.121114\C,0,0.63919,1.224157,0.014432\C,0,-0
 .110022,0.012736,-0.034248\C,0,0.170737,-2.548141,-0.323101\C,0,1.2995
 19,-3.352317,-0.385027\C,0,2.42336,-2.503271,-0.230905\H,0,1.339936,-4
 .428672,-0.537343\C,0,2.465643,2.48884,0.075632\C,0,0.211887,2.590539,
 0.082431\C,0,1.35481,3.372325,0.113027\H,0,1.415973,4.457272,0.163929\
 N,0,2.01691,-1.235332,-0.072766\N,0,2.037335,1.220958,0.022463\B,0,2.9
 55782,-0.022095,0.105362\F,0,3.597464,-0.0689,1.340936\F,0,3.910109,0.
 008087,-0.904619\C,0,-1.578278,0.016807,-0.005856\C,0,-2.332325,0.8929
 42,-0.810039\C,0,-2.289989,-0.869548,0.825767\C,0,-3.719121,0.887323,-
 0.786989\H,0,-1.820072,1.572755,-1.494106\C,0,-3.676307,-0.879409,0.86
 0137\H,0,-1.739933,-1.551522,1.478031\C,0,-4.425737,0.00211,0.05352\H,
 0,-4.278396,1.568615,-1.431923\H,0,-4.201057,-1.568522,1.525477\H,0,-0
 .820862,2.926567,0.113794\H,0,3.53016,2.724177,0.098205\H,0,-0.867484,
 -2.851383,-0.431289\H,0,3.483317,-2.757982,-0.238754\N,0,-5.793212,0.0
 28989,0.1172\H,0,-6.259241,-0.779109,0.514373\H,0,-6.288497,0.472406,-
 0.648335\\Version=ES64L-G16RevC.01\State=1-A\HF=-966.7472103\RMSD=4.06
 5e-09\Dipole=-3.4852646,-0.0800436,-0.5169778\Quadrupole=5.9003903,8.6
 230131,-14.5234033,3.7430771,1.7453354,-2.6921379\PG=C01 [X(C15H12B1F2
 N3)]\\@
 The archive entry for this job was punched.


 "TIGER, TIGER BURNING BRIGHT
 IN THE FOREST OF THE NIGHT.
 WHAT IMMORTAL HAND OR EYE
 CAN FRAME THY FEARFUL SYMMETRYE?"
                     - WILLIAM BLAKE
 Job cpu time:       0 days  5 hours 40 minutes 33.4 seconds.
 Elapsed time:       0 days  0 hours 10 minutes 48.0 seconds.
 File lengths (MBytes):  RWF=    781 Int=      0 D2E=      0 Chk=     25 Scr=      1
 Normal termination of Gaussian 16 at Fri Oct 10 18:41:19 2025.
