 Entering Gaussian System, Link 0=g16
 Initial command:
 /home/users/sutd/1008721/g16/l1.exe "/home/users/sutd/1008721/scratch/g16/scratch/Gau-2579114.inp" -scrdir="/home/users/sutd/1008721/scratch/g16/scratch/"
 Entering Link 1 = /home/users/sutd/1008721/g16/l1.exe PID=   2579115.
  
 Copyright (c) 1988-2019, Gaussian, Inc.  All Rights Reserved.
  
 This is part of the Gaussian(R) 16 program.  It is based on
 the Gaussian(R) 09 system (copyright 2009, Gaussian, Inc.),
 the Gaussian(R) 03 system (copyright 2003, Gaussian, Inc.),
 the Gaussian(R) 98 system (copyright 1998, Gaussian, Inc.),
 the Gaussian(R) 94 system (copyright 1995, Gaussian, Inc.),
 the Gaussian 92(TM) system (copyright 1992, Gaussian, Inc.),
 the Gaussian 90(TM) system (copyright 1990, Gaussian, Inc.),
 the Gaussian 88(TM) system (copyright 1988, Gaussian, Inc.),
 the Gaussian 86(TM) system (copyright 1986, Carnegie Mellon
 University), and the Gaussian 82(TM) system (copyright 1983,
 Carnegie Mellon University). Gaussian is a federally registered
 trademark of Gaussian, Inc.
  
 This software contains proprietary and confidential information,
 including trade secrets, belonging to Gaussian, Inc.
  
 This software is provided under written license and may be
 used, copied, transmitted, or stored only in accord with that
 written license.
  
 The following legend is applicable only to US Government
 contracts under FAR:
  
                    RESTRICTED RIGHTS LEGEND
  
 Use, reproduction and disclosure by the US Government is
 subject to restrictions as set forth in subparagraphs (a)
 and (c) of the Commercial Computer Software - Restricted
 Rights clause in FAR 52.227-19.
  
 Gaussian, Inc.
 340 Quinnipiac St., Bldg. 40, Wallingford CT 06492
  
  
 ---------------------------------------------------------------
 Warning -- This program may not be used in any manner that
 competes with the business of Gaussian, Inc. or will provide
 assistance to any competitor of Gaussian, Inc.  The licensee
 of this program is prohibited from giving any competitor of
 Gaussian, Inc. access to this program.  By using this program,
 the user acknowledges that Gaussian, Inc. is engaged in the
 business of creating and licensing software in the field of
 computational chemistry and represents and warrants to the
 licensee that it is not a competitor of Gaussian, Inc. and that
 it will not use this program in any manner prohibited above.
 ---------------------------------------------------------------
  

 Cite this work as:
 Gaussian 16, Revision C.01,
 M. J. Frisch, G. W. Trucks, H. B. Schlegel, G. E. Scuseria, 
 M. A. Robb, J. R. Cheeseman, G. Scalmani, V. Barone, 
 G. A. Petersson, H. Nakatsuji, X. Li, M. Caricato, A. V. Marenich, 
 J. Bloino, B. G. Janesko, R. Gomperts, B. Mennucci, H. P. Hratchian, 
 J. V. Ortiz, A. F. Izmaylov, J. L. Sonnenberg, D. Williams-Young, 
 F. Ding, F. Lipparini, F. Egidi, J. Goings, B. Peng, A. Petrone, 
 T. Henderson, D. Ranasinghe, V. G. Zakrzewski, J. Gao, N. Rega, 
 G. Zheng, W. Liang, M. Hada, M. Ehara, K. Toyota, R. Fukuda, 
 J. Hasegawa, M. Ishida, T. Nakajima, Y. Honda, O. Kitao, H. Nakai, 
 T. Vreven, K. Throssell, J. A. Montgomery, Jr., J. E. Peralta, 
 F. Ogliaro, M. J. Bearpark, J. J. Heyd, E. N. Brothers, K. N. Kudin, 
 V. N. Staroverov, T. A. Keith, R. Kobayashi, J. Normand, 
 K. Raghavachari, A. P. Rendell, J. C. Burant, S. S. Iyengar, 
 J. Tomasi, M. Cossi, J. M. Millam, M. Klene, C. Adamo, R. Cammi, 
 J. W. Ochterski, R. L. Martin, K. Morokuma, O. Farkas, 
 J. B. Foresman, and D. J. Fox, Gaussian, Inc., Wallingford CT, 2019.
 
 ******************************************
 Gaussian 16:  ES64L-G16RevC.01  3-Jul-2019
                10-Oct-2025 
 ******************************************
 %nprocshared=32
 Will use up to   32 processors via shared memory.
 %mem=64GB
 %chk=06BDP-NH2_ethanol_wb97xd_wb97xd_wb97xd.chk
 ----------------------------------------------------------------------
 # td=(nstates=3,root=1) wb97xd scrf=(smd,solvent=ethanol,correctedlr,n
 oneq=save) def2svp
 ----------------------------------------------------------------------
 1/30=1,38=1,172=1/1;
 2/12=2,17=6,18=5,40=1/2;
 3/5=43,7=101,11=9,25=1,30=1,70=9032201,71=1,72=4,74=-58/1,2,3,8;
 4//1;
 5/5=2,38=5,53=4/2;
 8/6=1,10=1,107=1,108=3/1;
 9/8=1,15=1,41=3,42=1,70=2,73=22/14;
 10/5=4,13=10,28=1,74=20/2;
 6/7=2,8=2,9=2,10=2,22=-1/1;
 99/5=1,9=1/99;
 ------------------------------------
 BDP-NH2_ethanol_wb97xd_wb97xd_wb97xd
 ------------------------------------
 Symbolic Z-matrix:
 Charge =  0 Multiplicity = 1
 C                     0.61971  -1.23457  -0.02244 
 C                     0.61301   1.23154  -0.0249 
 C                    -0.09994  -0.00345  -0.01602 
 C                     0.16386  -2.55957  -0.04192 
 C                     1.3171   -3.38381  -0.04938 
 C                     2.41478  -2.54031  -0.03387 
 H                     1.34719  -4.47228  -0.06654 
 C                     2.40091   2.54705  -0.03797 
 C                     0.14993   2.55404  -0.04626 
 C                     1.29866   3.38452  -0.05481 
 H                     1.32282   4.47311  -0.07338 
 N                     1.99802  -1.24012  -0.01729 
 N                     1.99127   1.24462  -0.01966 
 B                     2.90198   0.00478   0.03998 
 F                     3.65769   0.00792   1.23177 
 F                     3.80776   0.00623  -1.03934 
 C                    -1.55262  -0.00664  -0.00521 
 C                    -2.29548  -0.01183  -1.23105 
 C                    -2.27318   0.00071   1.23402 
 C                    -3.65621  -0.01003  -1.2303 
 H                    -1.74508  -0.01731  -2.17325 
 C                    -3.63349   0.00358   1.2578 
 H                    -1.70567   0.00464   2.16602 
 C                    -4.36725  -0.00164   0.02047 
 H                    -4.22732  -0.01423  -2.16011 
 H                    -4.18851   0.00988   2.19734 
 H                    -0.89524   2.86032  -0.05844 
 H                     3.46112   2.79662  -0.03734 
 H                    -0.8796   -2.8716   -0.05382 
 H                     3.47634  -2.7841   -0.03324 
 N                    -5.68219   0.00138   0.03334 
 H                    -6.19791   0.00742   0.90995 
 H                    -6.21558  -0.00238  -0.83263 
 
                          Input orientation:                          
 ---------------------------------------------------------------------
 Center     Atomic      Atomic             Coordinates (Angstroms)
 Number     Number       Type             X           Y           Z
 ---------------------------------------------------------------------
      1          6           0        0.619712   -1.234566   -0.022440
      2          6           0        0.613006    1.231537   -0.024903
      3          6           0       -0.099937   -0.003447   -0.016017
      4          6           0        0.163863   -2.559573   -0.041921
      5          6           0        1.317103   -3.383808   -0.049379
      6          6           0        2.414782   -2.540312   -0.033873
      7          1           0        1.347190   -4.472276   -0.066536
      8          6           0        2.400911    2.547047   -0.037965
      9          6           0        0.149925    2.554037   -0.046256
     10          6           0        1.298662    3.384521   -0.054812
     11          1           0        1.322824    4.473113   -0.073376
     12          7           0        1.998018   -1.240122   -0.017285
     13          7           0        1.991268    1.244621   -0.019664
     14          5           0        2.901976    0.004777    0.039980
     15          9           0        3.657691    0.007920    1.231773
     16          9           0        3.807759    0.006231   -1.039343
     17          6           0       -1.552619   -0.006641   -0.005211
     18          6           0       -2.295480   -0.011832   -1.231053
     19          6           0       -2.273178    0.000711    1.234016
     20          6           0       -3.656205   -0.010029   -1.230298
     21          1           0       -1.745077   -0.017312   -2.173251
     22          6           0       -3.633493    0.003578    1.257804
     23          1           0       -1.705671    0.004640    2.166017
     24          6           0       -4.367247   -0.001637    0.020467
     25          1           0       -4.227318   -0.014227   -2.160111
     26          1           0       -4.188510    0.009878    2.197343
     27          1           0       -0.895241    2.860321   -0.058435
     28          1           0        3.461120    2.796623   -0.037343
     29          1           0       -0.879604   -2.871596   -0.053823
     30          1           0        3.476336   -2.784104   -0.033237
     31          7           0       -5.682188    0.001378    0.033337
     32          1           0       -6.197913    0.007423    0.909946
     33          1           0       -6.215583   -0.002375   -0.832631
 ---------------------------------------------------------------------
                    Distance matrix (angstroms):
                    1          2          3          4          5
     1  C    0.000000
     2  C    2.466113   0.000000
     3  C    1.426040   1.426027   0.000000
     4  C    1.401364   3.817661   2.569833   0.000000
     5  C    2.259717   4.668807   3.665509   1.417527   0.000000
     6  C    2.219770   4.180110   3.572088   2.251016   1.384422
     7  H    3.318725   5.751021   4.697570   2.249289   1.089019
     8  C    4.180133   2.219762   3.572078   5.575120   6.029080
     9  C    3.817693   1.401394   2.569838   5.113631   6.051472
    10  C    4.668831   2.259725   3.665503   6.051462   6.768356
    11  H    5.751049   3.318736   4.697566   7.127612   7.856960
    12  N    1.378327   2.833269   2.435320   2.259576   2.249459
    13  N    2.833292   1.378334   2.435329   4.220402   4.677364
    14  B    2.597806   2.597794   3.002446   3.752314   3.741967
    15  F    3.513707   3.513770   3.959404   4.518977   4.315498
    16  F    3.568937   3.568881   4.039477   4.566857   4.321546
    17  C    2.495420   2.494675   1.452726   3.076543   4.431987
    18  C    3.384401   3.385270   2.509341   3.735423   5.081076
    19  C    3.387241   3.380809   2.507105   3.757957   5.098254
    20  C    4.608891   4.606585   3.757867   4.743979   6.124602
    21  H    3.420515   3.425723   2.712994   3.827494   5.022059
    22  C    4.611050   4.602822   3.756153   4.762241   6.139341
    23  H    3.425256   3.417846   2.709192   3.865920   5.052398
    24  C    5.137287   5.130857   4.267466   5.203642   6.614816
    25  H    5.436227   5.435051   4.651078   5.499817   6.822747
    26  H    5.440136   5.430045   4.649255   5.528068   6.846652
    27  H    4.366289   2.220106   2.972453   5.522429   6.624477
    28  H    4.931968   3.249831   4.530119   6.289735   6.541764
    29  H    2.220090   4.366282   2.972472   1.089185   2.255638
    30  H    3.249844   4.931947   4.530130   3.320085   2.241025
    31  N    6.422197   6.414527   5.582471   6.382824   7.775371
    32  H    6.992274   6.982909   6.167888   6.925873   8.300375
    33  H    6.992565   6.986028   6.169926   6.918223   8.293909
                    6          7          8          9         10
     6  C    0.000000
     7  H    2.207556   0.000000
     8  C    5.087380   7.098031   0.000000
     9  C    5.575134   7.127617   2.251012   0.000000
    10  C    6.029080   7.856956   1.384413   1.417524   0.000000
    11  H    7.098032   8.945425   2.207545   2.249284   1.089018
    12  N    1.365453   3.297396   3.808595   4.220418   4.677374
    13  N    3.808580   5.753255   1.365451   2.259606   2.249469
    14  B    2.592352   4.740539   2.592350   3.752326   3.741961
    15  F    3.104862   5.205399   3.104657   4.518904   4.315293
    16  F    3.071846   5.201709   3.072088   4.566978   4.321772
    17  C    4.707503   5.324899   4.706676   3.075291   4.430829
    18  C    5.478414   5.875432   5.479727   3.737303   5.082973
    19  C    5.480995   5.899671   5.472556   3.745664   5.086186
    20  C    6.685106   6.804407   6.681987   4.739516   6.120085
    21  H    5.314781   5.817823   5.322086   3.837574   5.032355
    22  C    6.687409   6.826005   6.675499   4.745489   6.122082
    23  H    5.319251   5.860634   5.308991   3.851858   5.038025
    24  C    7.241805   7.255961   7.232369   5.190449   6.601080
    25  H    7.417512   7.438575   7.415999   5.497692   6.820574
    26  H    7.421944   7.473876   7.406369   5.507132   6.824183
    27  H    6.334327   7.667825   3.311069   1.089188   2.255662
    28  H    5.438539   7.570102   1.089189   3.320081   2.241016
    29  H    3.311061   2.742435   6.334329   5.522452   6.624488
    30  H    1.089189   2.717406   5.438541   6.289748   6.541763
    31  N    8.486791   8.332809   8.474786   6.366785   7.757944
    32  H    9.031072   8.828918   9.015986   6.906129   8.278538
    33  H    9.031187   8.818302   9.020810   6.904587   8.278885
                   11         12         13         14         15
    11  H    0.000000
    12  N    5.753268   0.000000
    13  N    3.297402   2.484753   0.000000
    14  B    4.740527   1.539543   1.539532   0.000000
    15  F    5.205090   2.423277   2.423322   1.411200   0.000000
    16  F    5.202022   2.423461   2.423426   1.409036   2.276069
    17  C    5.323628   3.758809   3.758324   4.454839   5.355154
    18  C    5.877676   4.627748   4.628428   5.350640   6.442526
    19  C    5.885821   4.620448   4.615683   5.311116   5.930874
    20  C    6.799100   5.912256   5.910477   6.680087   7.717201
    21  H    5.829701   4.489344   4.493405   5.147230   6.386292
    22  C    6.805429   5.906484   5.900004   6.647966   7.291232
    23  H    5.844135   4.475886   4.470136   5.074490   5.444123
    24  C    7.239413   6.484741   6.479621   7.269252   8.115848
    25  H    7.436045   6.696964   6.696045   7.461072   8.583632
    26  H    7.446572   6.688812   6.680521   7.411426   7.905391
    27  H    2.742469   5.018593   3.308160   4.752123   5.525398
    28  H    2.717393   4.293761   2.137636   2.848337   3.070205
    29  H    7.667843   3.308134   5.018597   4.752122   5.525524
    30  H    7.570101   2.137653   4.293744   2.848352   3.070592
    31  N    8.311317   7.780067   7.773699   8.584167   9.416455
    32  H    8.801750   8.342027   8.334118   9.141380   9.860857
    33  H    8.799661   8.346260   8.340762   9.159224  10.086794
                   16         17         18         19         20
    16  F    0.000000
    17  C    5.459235   0.000000
    18  C    6.106276   1.433373   0.000000
    19  C    6.491994   1.433507   2.465202   0.000000
    20  C    7.466424   2.434322   1.360726   2.825902   0.000000
    21  H    5.667476   2.176592   1.091197   3.447997   2.131109
    22  C    7.787755   2.434204   2.825761   1.360526   2.488243
    23  H    6.377480   2.176645   3.447931   1.091195   3.916600
    24  C    8.243421   2.814750   2.420460   2.420296   1.438772
    25  H    8.112891   3.434773   2.143631   3.916502   1.091210
    26  H    8.626498   3.435031   3.916367   2.143964   3.468785
    27  H    5.588043   2.941845   3.403669   3.427318   4.151517
    28  H    2.985038   5.744293   6.515428   6.505048   7.743175
    29  H    5.587890   2.943345   3.401298   3.442488   4.157183
    30  H    2.984637   5.745039   6.514147   6.512913   7.746069
    31  N    9.550380   4.129757   3.615058   3.614274   2.387784
    32  H   10.193782   4.734603   4.451206   3.938097   3.322834
    33  H   10.025477   4.735808   3.940309   4.451247   2.590099
                   21         22         23         24         25
    21  H    0.000000
    22  C    3.916464   0.000000
    23  H    4.339502   2.131044   0.000000
    24  C    3.418833   1.438550   3.418686   0.000000
    25  H    2.482278   3.469162   5.007439   2.185099   0.000000
    26  H    5.007314   1.091246   2.483042   2.184232   4.357693
    27  H    3.670891   4.170311   3.709434   4.500206   4.876762
    28  H    6.291647   7.733824   6.272615   8.313659   8.456897
    29  H    3.658956   4.191765   3.725964   4.517282   4.879364
    30  H    6.284740   7.745168   6.282277   8.322668   8.458256
    31  N    4.513338   2.386729   4.512319   1.315007   2.632129
    32  H    5.416130   2.587908   4.664543   2.035336   3.648145
    33  H    4.667216   3.322220   5.415833   2.035712   2.390720
                   26         27         28         29         30
    26  H    0.000000
    27  H    4.905016   0.000000
    28  H    8.442548   4.356878   0.000000
    29  H    4.931480   5.731940   7.139388   0.000000
    30  H    8.457641   7.139388   5.580749   4.356867   0.000000
    31  N    2.629462   5.576454   9.561301   5.596998   9.572978
    32  H    2.386440   6.098780  10.098213   6.123889  10.113027
    33  H    3.645534   6.091014  10.104724   6.108326  10.114857
                   31         32         33
    31  N    0.000000
    32  H    1.017080   0.000000
    33  H    1.017067   1.742694   0.000000
 Stoichiometry    C15H12BF2N3
 Framework group  C1[X(C15H12BF2N3)]
 Deg. of freedom    93
 Full point group                 C1      NOp   1
 Largest Abelian subgroup         C1      NOp   1
 Largest concise Abelian subgroup C1      NOp   1
                         Standard orientation:                         
 ---------------------------------------------------------------------
 Center     Atomic      Atomic             Coordinates (Angstroms)
 Number     Number       Type             X           Y           Z
 ---------------------------------------------------------------------
      1          6           0        0.619712   -1.234566   -0.022440
      2          6           0        0.613006    1.231537   -0.024903
      3          6           0       -0.099937   -0.003447   -0.016017
      4          6           0        0.163863   -2.559573   -0.041921
      5          6           0        1.317103   -3.383808   -0.049379
      6          6           0        2.414782   -2.540312   -0.033873
      7          1           0        1.347190   -4.472276   -0.066536
      8          6           0        2.400911    2.547047   -0.037965
      9          6           0        0.149925    2.554037   -0.046256
     10          6           0        1.298662    3.384521   -0.054812
     11          1           0        1.322824    4.473113   -0.073376
     12          7           0        1.998018   -1.240122   -0.017285
     13          7           0        1.991268    1.244621   -0.019664
     14          5           0        2.901976    0.004777    0.039980
     15          9           0        3.657691    0.007920    1.231773
     16          9           0        3.807759    0.006231   -1.039343
     17          6           0       -1.552619   -0.006641   -0.005211
     18          6           0       -2.295480   -0.011832   -1.231053
     19          6           0       -2.273178    0.000711    1.234016
     20          6           0       -3.656205   -0.010029   -1.230298
     21          1           0       -1.745077   -0.017312   -2.173251
     22          6           0       -3.633493    0.003578    1.257804
     23          1           0       -1.705671    0.004640    2.166017
     24          6           0       -4.367247   -0.001637    0.020467
     25          1           0       -4.227318   -0.014227   -2.160111
     26          1           0       -4.188510    0.009878    2.197343
     27          1           0       -0.895241    2.860321   -0.058435
     28          1           0        3.461120    2.796623   -0.037343
     29          1           0       -0.879604   -2.871596   -0.053823
     30          1           0        3.476336   -2.784104   -0.033237
     31          7           0       -5.682188    0.001378    0.033337
     32          1           0       -6.197913    0.007423    0.909946
     33          1           0       -6.215583   -0.002375   -0.832631
 ---------------------------------------------------------------------
 Rotational constants (GHZ):           0.5722705           0.2134349           0.1705399
 Standard basis: def2SVP (5D, 7F)
 There are   375 symmetry adapted cartesian basis functions of A   symmetry.
 There are   354 symmetry adapted basis functions of A   symmetry.
   354 basis functions,   609 primitive gaussians,   375 cartesian basis functions
    73 alpha electrons       73 beta electrons
       nuclear repulsion energy      1586.4194370545 Hartrees.
 NAtoms=   33 NActive=   33 NUniq=   33 SFac= 1.00D+00 NAtFMM=   60 NAOKFM=F Big=F
 Integral buffers will be    131072 words long.
 Raffenetti 1 integral format.
 Two-electron integral symmetry is turned on.
 Nuclear repulsion after empirical dispersion term =     1586.3946405348 Hartrees.
 ------------------------------------------------------------------------------
 Polarizable Continuum Model (PCM)
 =================================
 Model                : PCM.
 Atomic radii         : SMD-Coulomb.
 Polarization charges : Total charges.
 Charge compensation  : None.
 Solution method      : On-the-fly selection.
 Cavity type          : VdW (van der Waals Surface) (Alpha=1.000).
 Cavity algorithm     : GePol (No added spheres)
                        Default sphere list used, NSphG=   33.
                        Lebedev-Laikov grids with approx.  5.0 points / Ang**2.
                        Smoothing algorithm: York/Karplus (Gamma=1.0000).
                        Polarization charges: spherical gaussians, with
                                              point-specific exponents (IZeta= 3).
                        Self-potential: point-specific (ISelfS= 7).
                        Self-field    : sphere-specific E.n sum rule (ISelfD= 2).
 1st derivatives      : Analytical E(r).r(x)/FMM algorithm (CHGder, D1EAlg=3).
                        Cavity 1st derivative terms included.
 Solvent              : Ethanol, Eps=  24.852000 Eps(inf)=   1.852593
 ------------------------------------------------------------------------------
 ------------------------------------------------------------------------------
 Atomic radii for non-electrostatic terms: SMD-CDS.
 ------------------------------------------------------------------------------
 Nuclear repulsion after PCM non-electrostatic terms =     1586.3939746656 Hartrees.
 One-electron integrals computed using PRISM.
   1 Symmetry operations used in ECPInt.
 ECPInt:  NShTT=   13203 NPrTT=   49137 LenC2=   11986 LenP2D=   31053.
 LDataN:  DoStor=T MaxTD1= 4 Len=   56
 NBasis=   354 RedAO= T EigKep=  2.85D-04  NBF=   354
 NBsUse=   354 1.00D-06 EigRej= -1.00D+00 NBFU=   354
 ExpMin= 8.36D-02 ExpMax= 2.89D+03 ExpMxC= 4.35D+02 IAcc=3 IRadAn=         5 AccDes= 0.00D+00
 Harris functional with IExCor= 4639 and IRadAn=       5 diagonalized for initial guess.
 HarFok:  IExCor= 4639 AccDes= 0.00D+00 IRadAn=         5 IDoV= 1 UseB2=F ITyADJ=14
 ICtDFT=  3500011 ScaDFX=  1.000000  1.000000  1.000000  1.000000
 FoFCou: FMM=F IPFlag=           0 FMFlag=      100000 FMFlg1=           0
         NFxFlg=           0 DoJE=T BraDBF=F KetDBF=T FulRan=T
         wScrn=  0.000000 ICntrl=       500 IOpCl=  0 I1Cent=   200000004 NGrid=           0
         NMat0=    1 NMatS0=      1 NMatT0=    0 NMatD0=    1 NMtDS0=    0 NMtDT0=    0
 Petite list used in FoFCou.
 Requested convergence on RMS density matrix=1.00D-08 within 128 cycles.
 Requested convergence on MAX density matrix=1.00D-06.
 Requested convergence on             energy=1.00D-06.
 No special actions if energy rises.
 Inv3:  Mode=1 IEnd=    20326827.
 Iteration    1 A*A^-1 deviation from unit magnitude is 5.44D-15 for   2593.
 Iteration    1 A*A^-1 deviation from orthogonality  is 2.23D-15 for   2285    417.
 Iteration    1 A^-1*A deviation from unit magnitude is 5.22D-15 for   2593.
 Iteration    1 A^-1*A deviation from orthogonality  is 3.33D-14 for   1619   1583.
 Error on total polarization charges =  0.03774
 SCF Done:  E(RwB97XD) =  -966.805156283     A.U. after   14 cycles
            NFock= 14  Conv=0.42D-08     -V/T= 2.0100
 SMD-CDS (non-electrostatic) energy       (kcal/mol) =      -0.42
 (included in total energy above)
 DoSCS=F DFT=T ScalE2(SS,OS)=  1.000000  1.000000
 ExpMin= 8.36D-02 ExpMax= 2.89D+03 ExpMxC= 4.35D+02 IAcc=3 IRadAn=         5 AccDes= 0.00D+00
 HarFok:  IExCor=  205 AccDes= 0.00D+00 IRadAn=         5 IDoV=-2 UseB2=F ITyADJ=14
 ICtDFT= 12500011 ScaDFX=  1.000000  1.000000  1.000000  1.000000
 GSVD:  LWork=        -609 too small for GESVD, short by        2520 words or        2520 for optimal perf.
 Range of M.O.s used for correlation:    22   354
 NBasis=   354 NAE=    73 NBE=    73 NFC=    21 NFV=     0
 NROrb=    333 NOA=    52 NOB=    52 NVA=   281 NVB=   281

 **** Warning!!: The largest alpha MO coefficient is  0.13876748D+02

 NEqPCM:  Using equilibrium solvation (IEInf=0, Eps=  24.8520, EpsInf=   1.8526)
 Orbital symmetries:
       Occupied  (A) (A) (A) (A) (A) (A) (A) (A) (A) (A) (A) (A)
                 (A) (A) (A) (A) (A) (A) (A) (A) (A) (A) (A) (A)
                 (A) (A) (A) (A) (A) (A) (A) (A) (A) (A) (A) (A)
                 (A) (A) (A) (A) (A) (A) (A) (A) (A) (A) (A) (A)
                 (A) (A) (A) (A) (A) (A) (A) (A) (A) (A) (A) (A)
                 (A) (A) (A) (A) (A) (A) (A) (A) (A) (A) (A) (A)
                 (A)
       Virtual   (A) (A) (A) (A) (A) (A) (A) (A) (A) (A) (A) (A)
                 (A) (A) (A) (A) (A) (A) (A) (A) (A) (A) (A) (A)
                 (A) (A) (A) (A) (A) (A) (A) (A) (A) (A) (A) (A)
                 (A) (A) (A) (A) (A) (A) (A) (A) (A) (A) (A) (A)
                 (A) (A) (A) (A) (A) (A) (A) (A) (A) (A) (A) (A)
                 (A) (A) (A) (A) (A) (A) (A) (A) (A) (A) (A) (A)
                 (A) (A) (A) (A) (A) (A) (A) (A) (A) (A) (A) (A)
                 (A) (A) (A) (A) (A) (A) (A) (A) (A) (A) (A) (A)
                 (A) (A) (A) (A) (A) (A) (A) (A) (A) (A) (A) (A)
                 (A) (A) (A) (A) (A) (A) (A) (A) (A) (A) (A) (A)
                 (A) (A) (A) (A) (A) (A) (A) (A) (A) (A) (A) (A)
                 (A) (A) (A) (A) (A) (A) (A) (A) (A) (A) (A) (A)
                 (A) (A) (A) (A) (A) (A) (A) (A) (A) (A) (A) (A)
                 (A) (A) (A) (A) (A) (A) (A) (A) (A) (A) (A) (A)
                 (A) (A) (A) (A) (A) (A) (A) (A) (A) (A) (A) (A)
                 (A) (A) (A) (A) (A) (A) (A) (A) (A) (A) (A) (A)
                 (A) (A) (A) (A) (A) (A) (A) (A) (A) (A) (A) (A)
                 (A) (A) (A) (A) (A) (A) (A) (A) (A) (A) (A) (A)
                 (A) (A) (A) (A) (A) (A) (A) (A) (A) (A) (A) (A)
                 (A) (A) (A) (A) (A) (A) (A) (A) (A) (A) (A) (A)
                 (A) (A) (A) (A) (A) (A) (A) (A) (A) (A) (A) (A)
                 (A) (A) (A) (A) (A) (A) (A) (A) (A) (A) (A) (A)
                 (A) (A) (A) (A) (A) (A) (A) (A) (A) (A) (A) (A)
                 (A) (A) (A) (A) (A)
    12 initial guesses have been made.
 Convergence on wavefunction:    0.000001000000000
 Iteration     1 Dimension    12 NMult     0 NNew     12
 CISAX will form    12 AO SS matrices at one time.
 Iteration     2 Dimension    18 NMult    12 NNew      6
 Iteration     3 Dimension    24 NMult    18 NNew      6
 Iteration     4 Dimension    30 NMult    24 NNew      6
 Iteration     5 Dimension    36 NMult    30 NNew      6
 Iteration     6 Dimension    42 NMult    36 NNew      6
 Iteration     7 Dimension    48 NMult    42 NNew      6
 Iteration     8 Dimension    54 NMult    48 NNew      6
 Iteration     9 Dimension    60 NMult    54 NNew      6
 Iteration    10 Dimension    64 NMult    60 NNew      4
 Iteration    11 Dimension    66 NMult    64 NNew      2
 PCM Corrected Linear-Response:
 The state of interest is root number   1
 Excitation energy =    2.2953 eV, Total energy =  -966.720804090    
 Recompute the excitation energies using the linear response reaction field.
 Convergence on wavefunction:    0.000001000000000
 Iteration     1 Dimension     3 NMult     0 NNew      3
 Iteration     2 Dimension     9 NMult     3 NNew      6
 Iteration     3 Dimension    15 NMult     9 NNew      6
 Iteration     4 Dimension    21 NMult    15 NNew      6
 Iteration     5 Dimension    27 NMult    21 NNew      6
 Iteration     6 Dimension    33 NMult    27 NNew      6
 Iteration     7 Dimension    39 NMult    33 NNew      6
 Iteration     8 Dimension    45 NMult    39 NNew      6
 Iteration     9 Dimension    51 NMult    45 NNew      6
 Iteration    10 Dimension    55 NMult    51 NNew      4
 Iteration    11 Dimension    59 NMult    55 NNew      4
 Iteration    12 Dimension    61 NMult    59 NNew      2
 Iteration    13 Dimension    63 NMult    61 NNew      2
 Iteration    14 Dimension    65 NMult    63 NNew      2
 Iteration    15 Dimension    67 NMult    65 NNew      2
 ***********************************************************************
 Excited states from <AA,BB:AA,BB> singles matrix:
 ***********************************************************************
 
 Ground to excited state transition densities written to RWF  633
 Ground to excited state transition electric dipole moments (Au):
       state          X           Y           Z        Dip. S.      Osc.
         1        -0.0222      0.0555      0.0010      0.0036      0.0002
         2        -0.0093      3.5544     -0.0030     12.6336      0.8309
         3        -0.0016      0.7383     -0.0007      0.5451      0.0490
 Ground to excited state transition velocity dipole moments (Au):
       state          X           Y           Z        Dip. S.      Osc.
         1         0.0018     -0.0045     -0.0001      0.0000      0.0002
         2         0.0009     -0.3379      0.0003      0.1142      0.7715
         3         0.0002     -0.1006      0.0001      0.0101      0.0500
 Ground to excited state transition magnetic dipole moments (Au):
       state          X           Y           Z
         1         0.0979     -0.0006     -0.0003
         2        -0.0151      0.0000      0.3665
         3         0.0034     -0.0013     -1.4107
 Ground to excited state transition velocity quadrupole moments (Au):
       state          XX          YY          ZZ          XY          XZ          YZ
         1        -0.0092      0.0046     -0.0005     -0.0131      0.0005     -0.0012
         2         0.0057     -0.0014     -0.0000     -0.9744      0.0007      0.0272
         3        -0.0008      0.0023      0.0000      0.2351     -0.0003      0.0070
 <0|del|b> * <b|rxdel|0> + <0|del|b> * <b|delr+rdel|0>
 Rotatory Strengths (R) in cgs (10**-40 erg-esu-cm/Gauss)
       state          XX          YY          ZZ    R(velocity)    E-M Angle
         1         0.0238      0.7218      0.7434      0.4963       68.04
         2         0.1669      1.4116     -1.0395      0.1797       90.00
         3        -0.0243     -0.4074      0.4224     -0.0031       90.00
 1/2[<0|r|b>*<b|rxdel|0> + (<0|rxdel|b>*<b|r|0>)*]
 Rotatory Strengths (R) in cgs (10**-40 erg-esu-cm/Gauss)
       state          XX          YY          ZZ     R(length)
         1         1.5396      0.0218      0.0002      0.5205
         2        -0.0989     -0.1220      0.7842      0.1878
         3         0.0039      0.6886     -0.7051     -0.0042
  1/2[<0|del|b>*<b|r|0> + (<0|r|b>*<b|del|0>)*] (Au)
       state          X           Y           Z        Dip. S.   Osc.(frdel)
         1        -0.0000     -0.0003     -0.0000      0.0003      0.0002
         2        -0.0000     -1.2010     -0.0000      1.2010      0.8007
         3        -0.0000     -0.0743     -0.0000      0.0743      0.0495

 Excitation energies and oscillator strengths:
 
 Excited State   1:      Singlet-A      2.2948 eV  540.28 nm  f=0.0002  <S**2>=0.000
      67 -> 74        -0.13915
      73 -> 74         0.68944
 This state for optimization and/or second-order correction.
 Total Energy, E(TD-HF/TD-DFT) =  -966.720823928    
 Copying the excited state density for this state as the 1-particle RhoCI density.
 
 Excited State   2:      Singlet-A      2.6845 eV  461.85 nm  f=0.8309  <S**2>=0.000
      72 -> 74         0.70075
 
 Excited State   3:      Singlet-A      3.6717 eV  337.67 nm  f=0.0490  <S**2>=0.000
      70 -> 74        -0.18075
      71 -> 74         0.67940
 SavETr:  write IOETrn=   770 NScale= 10 NData=  16 NLR=1 NState=    3 LETran=      64.
 NEqPCM:  Using equilibrium solvation (IEInf=0, Eps=  24.8520, EpsInf=   1.8526)
          Differentiating once with respect to electric field.
                with respect to dipole field.
          Electric field/nuclear overlap derivatives assumed to be zero.
          There are     1 degrees of freedom in the 1st order CPHF.  IDoFFX=0 NUNeed=     1.
 LinEq1:  Iter=  0 NonCon=     1 RMS=4.60D-03 Max=1.49D-01 NDo=     1
 AX will form     1 AO Fock derivatives at one time.
 LinEq1:  Iter=  1 NonCon=     1 RMS=1.50D-03 Max=1.10D-01 NDo=     1
 LinEq1:  Iter=  2 NonCon=     1 RMS=9.62D-04 Max=7.92D-02 NDo=     1
 LinEq1:  Iter=  3 NonCon=     1 RMS=3.60D-04 Max=2.12D-02 NDo=     1
 LinEq1:  Iter=  4 NonCon=     1 RMS=1.60D-04 Max=6.39D-03 NDo=     1
 LinEq1:  Iter=  5 NonCon=     1 RMS=6.85D-05 Max=2.56D-03 NDo=     1
 LinEq1:  Iter=  6 NonCon=     1 RMS=2.58D-05 Max=1.27D-03 NDo=     1
 LinEq1:  Iter=  7 NonCon=     1 RMS=1.40D-05 Max=5.71D-04 NDo=     1
 LinEq1:  Iter=  8 NonCon=     1 RMS=5.14D-06 Max=1.72D-04 NDo=     1
 LinEq1:  Iter=  9 NonCon=     1 RMS=2.54D-06 Max=1.44D-04 NDo=     1
 LinEq1:  Iter= 10 NonCon=     1 RMS=1.09D-06 Max=5.01D-05 NDo=     1
 LinEq1:  Iter= 11 NonCon=     1 RMS=3.32D-07 Max=1.37D-05 NDo=     1
 LinEq1:  Iter= 12 NonCon=     1 RMS=1.28D-07 Max=5.89D-06 NDo=     1
 LinEq1:  Iter= 13 NonCon=     1 RMS=6.77D-08 Max=4.08D-06 NDo=     1
 LinEq1:  Iter= 14 NonCon=     1 RMS=2.66D-08 Max=1.54D-06 NDo=     1
 LinEq1:  Iter= 15 NonCon=     1 RMS=1.25D-08 Max=5.63D-07 NDo=     1
 LinEq1:  Iter= 16 NonCon=     1 RMS=5.52D-09 Max=2.56D-07 NDo=     1
 LinEq1:  Iter= 17 NonCon=     1 RMS=2.09D-09 Max=6.01D-08 NDo=     1
 LinEq1:  Iter= 18 NonCon=     1 RMS=7.28D-10 Max=2.85D-08 NDo=     1
 LinEq1:  Iter= 19 NonCon=     1 RMS=2.61D-10 Max=9.17D-09 NDo=     1
 LinEq1:  Iter= 20 NonCon=     1 RMS=1.36D-10 Max=6.58D-09 NDo=     1
 LinEq1:  Iter= 21 NonCon=     1 RMS=5.15D-11 Max=3.28D-09 NDo=     1
 LinEq1:  Iter= 22 NonCon=     1 RMS=2.07D-11 Max=1.18D-09 NDo=     1
 LinEq1:  Iter= 23 NonCon=     0 RMS=1.06D-11 Max=4.65D-10 NDo=     1
 Linear equations converged to 1.000D-10 1.000D-09 after    23 iterations.
 PCM Corrected Linear-Response - Equilibrium solvation:
 Corrected transition energy               =    1.3117          eV
 Total energy after correction             = -966.756952776     a.u.
 NEqPCM:  Using non-equilibrium solvation (IEInf=1, Eps=  24.8520, EpsInf=   1.8526)
 Inv3:  Mode=1 IEnd=    20326827.
 Iteration    1 A*A^-1 deviation from unit magnitude is 6.88D-15 for   2582.
 Iteration    1 A*A^-1 deviation from orthogonality  is 2.72D-15 for   2602    980.
 Iteration    1 A^-1*A deviation from unit magnitude is 6.88D-15 for   2582.
 Iteration    1 A^-1*A deviation from orthogonality  is 3.01D-15 for   2600    947.
 End of Minotr F.D. properties file   721 does not exist.
 End of Minotr F.D. properties file   722 does not exist.
 End of Minotr F.D. properties file   788 does not exist.

 **********************************************************************

            Population analysis using the CI Density.

 **********************************************************************

 Orbital symmetries:
       Occupied  (A) (A) (A) (A) (A) (A) (A) (A) (A) (A) (A) (A)
                 (A) (A) (A) (A) (A) (A) (A) (A) (A) (A) (A) (A)
                 (A) (A) (A) (A) (A) (A) (A) (A) (A) (A) (A) (A)
                 (A) (A) (A) (A) (A) (A) (A) (A) (A) (A) (A) (A)
                 (A) (A) (A) (A) (A) (A) (A) (A) (A) (A) (A) (A)
                 (A) (A) (A) (A) (A) (A) (A) (A) (A) (A) (A) (A)
                 (A)
       Virtual   (A) (A) (A) (A) (A) (A) (A) (A) (A) (A) (A) (A)
                 (A) (A) (A) (A) (A) (A) (A) (A) (A) (A) (A) (A)
                 (A) (A) (A) (A) (A) (A) (A) (A) (A) (A) (A) (A)
                 (A) (A) (A) (A) (A) (A) (A) (A) (A) (A) (A) (A)
                 (A) (A) (A) (A) (A) (A) (A) (A) (A) (A) (A) (A)
                 (A) (A) (A) (A) (A) (A) (A) (A) (A) (A) (A) (A)
                 (A) (A) (A) (A) (A) (A) (A) (A) (A) (A) (A) (A)
                 (A) (A) (A) (A) (A) (A) (A) (A) (A) (A) (A) (A)
                 (A) (A) (A) (A) (A) (A) (A) (A) (A) (A) (A) (A)
                 (A) (A) (A) (A) (A) (A) (A) (A) (A) (A) (A) (A)
                 (A) (A) (A) (A) (A) (A) (A) (A) (A) (A) (A) (A)
                 (A) (A) (A) (A) (A) (A) (A) (A) (A) (A) (A) (A)
                 (A) (A) (A) (A) (A) (A) (A) (A) (A) (A) (A) (A)
                 (A) (A) (A) (A) (A) (A) (A) (A) (A) (A) (A) (A)
                 (A) (A) (A) (A) (A) (A) (A) (A) (A) (A) (A) (A)
                 (A) (A) (A) (A) (A) (A) (A) (A) (A) (A) (A) (A)
                 (A) (A) (A) (A) (A) (A) (A) (A) (A) (A) (A) (A)
                 (A) (A) (A) (A) (A) (A) (A) (A) (A) (A) (A) (A)
                 (A) (A) (A) (A) (A) (A) (A) (A) (A) (A) (A) (A)
                 (A) (A) (A) (A) (A) (A) (A) (A) (A) (A) (A) (A)
                 (A) (A) (A) (A) (A) (A) (A) (A) (A) (A) (A) (A)
                 (A) (A) (A) (A) (A) (A) (A) (A) (A) (A) (A) (A)
                 (A) (A) (A) (A) (A) (A) (A) (A) (A) (A) (A) (A)
                 (A) (A) (A) (A) (A)
 The electronic state is 1-A.
 Alpha  occ. eigenvalues --  -24.76378 -24.76280 -14.47945 -14.47943 -14.45232
 Alpha  occ. eigenvalues --  -10.37287 -10.35117 -10.34625 -10.34622 -10.34204
 Alpha  occ. eigenvalues --  -10.34194 -10.31726 -10.31723 -10.30972 -10.30967
 Alpha  occ. eigenvalues --  -10.30655 -10.30212 -10.30212 -10.29327 -10.29323
 Alpha  occ. eigenvalues --   -6.93959  -1.24788  -1.21310  -1.09234  -1.07393
 Alpha  occ. eigenvalues --   -1.02728  -0.95275  -0.90632  -0.88730  -0.87058
 Alpha  occ. eigenvalues --   -0.84615  -0.82727  -0.81652  -0.75508  -0.70562
 Alpha  occ. eigenvalues --   -0.70439  -0.69716  -0.67240  -0.66903  -0.66689
 Alpha  occ. eigenvalues --   -0.63325  -0.62030  -0.60831  -0.59739  -0.59249
 Alpha  occ. eigenvalues --   -0.57299  -0.55440  -0.53816  -0.52871  -0.52766
 Alpha  occ. eigenvalues --   -0.52341  -0.51557  -0.51134  -0.51096  -0.50815
 Alpha  occ. eigenvalues --   -0.49877  -0.48798  -0.48552  -0.48085  -0.46963
 Alpha  occ. eigenvalues --   -0.46860  -0.46251  -0.45229  -0.44681  -0.43391
 Alpha  occ. eigenvalues --   -0.42149  -0.40313  -0.37480  -0.34738  -0.34565
 Alpha  occ. eigenvalues --   -0.33733  -0.29570  -0.26704
 Alpha virt. eigenvalues --   -0.05636   0.06269   0.06966   0.09813   0.11238
 Alpha virt. eigenvalues --    0.13741   0.15663   0.16928   0.17231   0.17488
 Alpha virt. eigenvalues --    0.18055   0.18086   0.20042   0.20925   0.21107
 Alpha virt. eigenvalues --    0.21893   0.22377   0.22455   0.23201   0.24008
 Alpha virt. eigenvalues --    0.25449   0.25980   0.27149   0.28727   0.28763
 Alpha virt. eigenvalues --    0.30255   0.30793   0.31628   0.33705   0.34893
 Alpha virt. eigenvalues --    0.35257   0.36504   0.37231   0.37789   0.39883
 Alpha virt. eigenvalues --    0.41175   0.42171   0.42207   0.43429   0.43962
 Alpha virt. eigenvalues --    0.46174   0.46462   0.47627   0.48344   0.48416
 Alpha virt. eigenvalues --    0.49275   0.49498   0.49974   0.50154   0.51000
 Alpha virt. eigenvalues --    0.51093   0.52319   0.52843   0.53995   0.54665
 Alpha virt. eigenvalues --    0.55158   0.55392   0.57892   0.58496   0.58589
 Alpha virt. eigenvalues --    0.58877   0.59343   0.59906   0.60475   0.63064
 Alpha virt. eigenvalues --    0.63369   0.63550   0.64324   0.65175   0.66161
 Alpha virt. eigenvalues --    0.67220   0.68491   0.68984   0.72726   0.73058
 Alpha virt. eigenvalues --    0.73361   0.73768   0.74257   0.74449   0.74566
 Alpha virt. eigenvalues --    0.75560   0.75760   0.76877   0.77230   0.78573
 Alpha virt. eigenvalues --    0.78871   0.79106   0.79735   0.79943   0.80404
 Alpha virt. eigenvalues --    0.81323   0.82221   0.82519   0.83561   0.84587
 Alpha virt. eigenvalues --    0.85712   0.86257   0.87879   0.90454   0.90740
 Alpha virt. eigenvalues --    0.90802   0.91818   0.93313   0.93818   0.96018
 Alpha virt. eigenvalues --    0.96401   0.98357   0.99848   1.02469   1.03134
 Alpha virt. eigenvalues --    1.05493   1.08313   1.08682   1.11278   1.13798
 Alpha virt. eigenvalues --    1.14904   1.15219   1.16273   1.19868   1.21725
 Alpha virt. eigenvalues --    1.23142   1.23435   1.25235   1.26487   1.27692
 Alpha virt. eigenvalues --    1.28624   1.30554   1.31470   1.33096   1.34149
 Alpha virt. eigenvalues --    1.34227   1.34931   1.35206   1.36220   1.36311
 Alpha virt. eigenvalues --    1.37272   1.37286   1.38592   1.40049   1.40339
 Alpha virt. eigenvalues --    1.42103   1.42286   1.42687   1.44680   1.46753
 Alpha virt. eigenvalues --    1.48664   1.49865   1.53868   1.54593   1.58704
 Alpha virt. eigenvalues --    1.58920   1.62318   1.63833   1.64338   1.69256
 Alpha virt. eigenvalues --    1.70064   1.71255   1.72454   1.72760   1.73471
 Alpha virt. eigenvalues --    1.74259   1.76891   1.77221   1.78787   1.78869
 Alpha virt. eigenvalues --    1.80338   1.80604   1.80800   1.82032   1.82454
 Alpha virt. eigenvalues --    1.83434   1.83822   1.84501   1.85274   1.86846
 Alpha virt. eigenvalues --    1.87511   1.88253   1.90141   1.90924   1.91957
 Alpha virt. eigenvalues --    1.93746   1.93932   1.94544   1.94775   1.95898
 Alpha virt. eigenvalues --    1.97503   2.00473   2.00776   2.00921   2.01743
 Alpha virt. eigenvalues --    2.01913   2.03220   2.04338   2.04452   2.05462
 Alpha virt. eigenvalues --    2.06430   2.09109   2.11216   2.11364   2.12718
 Alpha virt. eigenvalues --    2.15530   2.17348   2.18173   2.20290   2.21901
 Alpha virt. eigenvalues --    2.22519   2.23128   2.24568   2.24951   2.26934
 Alpha virt. eigenvalues --    2.28916   2.29982   2.30138   2.30332   2.31847
 Alpha virt. eigenvalues --    2.33013   2.36391   2.37547   2.38412   2.38805
 Alpha virt. eigenvalues --    2.39471   2.41193   2.44384   2.44704   2.47363
 Alpha virt. eigenvalues --    2.48009   2.49566   2.50475   2.55894   2.61909
 Alpha virt. eigenvalues --    2.62187   2.62646   2.64639   2.67838   2.68978
 Alpha virt. eigenvalues --    2.71381   2.74728   2.74960   2.74991   2.76668
 Alpha virt. eigenvalues --    2.77199   2.77460   2.77506   2.78653   2.80151
 Alpha virt. eigenvalues --    2.80273   2.80987   2.82076   2.84301   2.88065
 Alpha virt. eigenvalues --    2.91545   2.93072   2.95798   2.98912   2.99249
 Alpha virt. eigenvalues --    3.00655   3.06286   3.09083   3.10245   3.16363
 Alpha virt. eigenvalues --    3.19124   3.19205   3.19601   3.21835   3.23000
 Alpha virt. eigenvalues --    3.25237   3.29087   3.29882   3.30024   3.35153
 Alpha virt. eigenvalues --    3.38372   3.50525   3.52978   3.53903   3.54784
 Alpha virt. eigenvalues --    3.58653   3.66734   3.69097   3.71474   3.81685
 Alpha virt. eigenvalues --    3.83061
          Condensed to atoms (all electrons):
               1          2          3          4          5          6
     1  C    5.064527   0.011013   0.244961   0.455071  -0.017081  -0.136414
     2  C    0.011013   5.065207   0.244782   0.012175  -0.000487  -0.000057
     3  C    0.244961   0.244782   5.688412  -0.134163   0.020837   0.013648
     4  C    0.455071   0.012175  -0.134163   5.225052   0.332744  -0.039155
     5  C   -0.017081  -0.000487   0.020837   0.332744   5.072414   0.436627
     6  C   -0.136414  -0.000057   0.013648  -0.039155   0.436627   4.912657
     7  H    0.010946   0.000010  -0.000521  -0.056833   0.449720  -0.054129
     8  C   -0.000057  -0.136396   0.013640   0.000016  -0.000001   0.000035
     9  C    0.012141   0.455057  -0.134183  -0.000038   0.000002   0.000016
    10  C   -0.000486  -0.017039   0.020846   0.000002  -0.000000  -0.000001
    11  H    0.000010   0.010944  -0.000521   0.000000   0.000000   0.000000
    12  N    0.473307  -0.006656  -0.086553  -0.095974  -0.068153   0.405590
    13  N   -0.006646   0.473377  -0.086593  -0.000150  -0.000027   0.000157
    14  B   -0.049316  -0.049326  -0.015312   0.003690  -0.001226  -0.012510
    15  F   -0.003636  -0.003634   0.001723  -0.000043  -0.000091  -0.001112
    16  F   -0.003670  -0.003671   0.001792  -0.000087   0.000134  -0.000187
    17  C   -0.077185  -0.077647   0.432412  -0.014889  -0.000380   0.000079
    18  C   -0.005122  -0.005138  -0.084070   0.000691  -0.000038  -0.000024
    19  C   -0.005044  -0.005294  -0.085283   0.000768  -0.000038  -0.000025
    20  C    0.000801   0.000816   0.009632  -0.000285  -0.000005   0.000000
    21  H   -0.001074  -0.001148  -0.008241   0.000238   0.000004  -0.000001
    22  C    0.000790   0.000834   0.009823  -0.000259  -0.000005   0.000000
    23  H   -0.001063  -0.001115  -0.008333   0.000177   0.000004  -0.000001
    24  C   -0.000046  -0.000046   0.001155   0.000001   0.000002  -0.000000
    25  H   -0.000004  -0.000004  -0.000208   0.000001  -0.000000   0.000000
    26  H   -0.000004  -0.000005  -0.000212   0.000001  -0.000000   0.000000
    27  H   -0.000404  -0.032147  -0.022616   0.000001   0.000000  -0.000000
    28  H    0.000053   0.003275  -0.000589  -0.000000   0.000000   0.000005
    29  H   -0.032177  -0.000399  -0.022580   0.445413  -0.061963   0.011172
    30  H    0.003275   0.000053  -0.000588   0.010459  -0.056696   0.431788
    31  N   -0.000000  -0.000000   0.000013   0.000000   0.000000  -0.000000
    32  H   -0.000000  -0.000000   0.000000   0.000000  -0.000000   0.000000
    33  H   -0.000000  -0.000000   0.000000   0.000000  -0.000000   0.000000
               7          8          9         10         11         12
     1  C    0.010946  -0.000057   0.012141  -0.000486   0.000010   0.473307
     2  C    0.000010  -0.136396   0.455057  -0.017039   0.010944  -0.006656
     3  C   -0.000521   0.013640  -0.134183   0.020846  -0.000521  -0.086553
     4  C   -0.056833   0.000016  -0.000038   0.000002   0.000000  -0.095974
     5  C    0.449720  -0.000001   0.000002  -0.000000   0.000000  -0.068153
     6  C   -0.054129   0.000035   0.000016  -0.000001   0.000000   0.405590
     7  H    0.623752   0.000000   0.000000   0.000000  -0.000000   0.004729
     8  C    0.000000   4.912583  -0.039146   0.436607  -0.054128   0.000157
     9  C    0.000000  -0.039146   5.225183   0.332646  -0.056832  -0.000151
    10  C    0.000000   0.436607   0.332646   5.072517   0.449725  -0.000027
    11  H   -0.000000  -0.054128  -0.056832   0.449725   0.623745   0.000002
    12  N    0.004729   0.000157  -0.000151  -0.000027   0.000002   6.390846
    13  N    0.000002   0.405595  -0.095957  -0.068148   0.004729  -0.050286
    14  B    0.000125  -0.012505   0.003691  -0.001227   0.000125   0.309355
    15  F    0.000001  -0.001109  -0.000043  -0.000091   0.000001  -0.036041
    16  F    0.000001  -0.000191  -0.000087   0.000134   0.000001  -0.034977
    17  C   -0.000019   0.000082  -0.014961  -0.000385  -0.000019   0.004616
    18  C    0.000001  -0.000024   0.000690  -0.000037   0.000001  -0.000004
    19  C    0.000001  -0.000026   0.000750  -0.000038   0.000001   0.000008
    20  C    0.000000   0.000000  -0.000288  -0.000005   0.000000   0.000004
    21  H   -0.000000  -0.000001   0.000221   0.000004  -0.000000  -0.000070
    22  C    0.000000   0.000000  -0.000276  -0.000005   0.000000   0.000003
    23  H   -0.000000  -0.000001   0.000186   0.000005  -0.000000  -0.000071
    24  C    0.000000  -0.000000  -0.000001   0.000002   0.000000  -0.000000
    25  H   -0.000000   0.000000   0.000001  -0.000000  -0.000000  -0.000000
    26  H   -0.000000   0.000000   0.000001  -0.000000  -0.000000  -0.000000
    27  H   -0.000000   0.011174   0.445417  -0.061981  -0.004314  -0.000013
    28  H   -0.000000   0.431793   0.010461  -0.056706  -0.003739   0.000149
    29  H   -0.004313  -0.000000   0.000001   0.000000  -0.000000   0.005366
    30  H   -0.003739   0.000005  -0.000000   0.000000  -0.000000  -0.033249
    31  N   -0.000000  -0.000000   0.000000   0.000000  -0.000000   0.000000
    32  H   -0.000000   0.000000   0.000000  -0.000000  -0.000000  -0.000000
    33  H   -0.000000   0.000000   0.000000  -0.000000  -0.000000  -0.000000
              13         14         15         16         17         18
     1  C   -0.006646  -0.049316  -0.003636  -0.003670  -0.077185  -0.005122
     2  C    0.473377  -0.049326  -0.003634  -0.003671  -0.077647  -0.005138
     3  C   -0.086593  -0.015312   0.001723   0.001792   0.432412  -0.084070
     4  C   -0.000150   0.003690  -0.000043  -0.000087  -0.014889   0.000691
     5  C   -0.000027  -0.001226  -0.000091   0.000134  -0.000380  -0.000038
     6  C    0.000157  -0.012510  -0.001112  -0.000187   0.000079  -0.000024
     7  H    0.000002   0.000125   0.000001   0.000001  -0.000019   0.000001
     8  C    0.405595  -0.012505  -0.001109  -0.000191   0.000082  -0.000024
     9  C   -0.095957   0.003691  -0.000043  -0.000087  -0.014961   0.000690
    10  C   -0.068148  -0.001227  -0.000091   0.000134  -0.000385  -0.000037
    11  H    0.004729   0.000125   0.000001   0.000001  -0.000019   0.000001
    12  N   -0.050286   0.309355  -0.036041  -0.034977   0.004616  -0.000004
    13  N    6.390774   0.309354  -0.036040  -0.034976   0.004605  -0.000004
    14  B    0.309354   3.437169   0.452974   0.445090   0.002643   0.000049
    15  F   -0.036040   0.452974   8.924814  -0.027667   0.000006   0.000000
    16  F   -0.034976   0.445090  -0.027667   8.927956   0.000005  -0.000000
    17  C    0.004605   0.002643   0.000006   0.000005   5.437064   0.219010
    18  C   -0.000004   0.000049   0.000000  -0.000000   0.219010   5.024163
    19  C    0.000009  -0.000007  -0.000000   0.000000   0.221925   0.010663
    20  C    0.000004  -0.000001  -0.000000  -0.000000   0.080542   0.332835
    21  H   -0.000069  -0.000010  -0.000000   0.000000  -0.055564   0.459054
    22  C    0.000003   0.000000   0.000000  -0.000000   0.080433  -0.086614
    23  H   -0.000073  -0.000004   0.000000  -0.000000  -0.055259   0.010477
    24  C   -0.000000   0.000000   0.000000   0.000000  -0.152275   0.111032
    25  H   -0.000000  -0.000000   0.000000  -0.000000   0.012228  -0.047065
    26  H   -0.000000  -0.000000  -0.000000   0.000000   0.012226  -0.002482
    27  H    0.005366   0.000282   0.000001   0.000001   0.007757  -0.000624
    28  H   -0.033247   0.000942   0.000235   0.000984   0.000003   0.000000
    29  H   -0.000013   0.000282   0.000001   0.000001   0.007767  -0.000615
    30  H    0.000149   0.000943   0.000233   0.000987   0.000003   0.000000
    31  N    0.000000   0.000000   0.000000   0.000000  -0.000163   0.005040
    32  H   -0.000000  -0.000000  -0.000000   0.000000   0.000002  -0.000375
    33  H   -0.000000  -0.000000   0.000000  -0.000000   0.000002   0.000618
              19         20         21         22         23         24
     1  C   -0.005044   0.000801  -0.001074   0.000790  -0.001063  -0.000046
     2  C   -0.005294   0.000816  -0.001148   0.000834  -0.001115  -0.000046
     3  C   -0.085283   0.009632  -0.008241   0.009823  -0.008333   0.001155
     4  C    0.000768  -0.000285   0.000238  -0.000259   0.000177   0.000001
     5  C   -0.000038  -0.000005   0.000004  -0.000005   0.000004   0.000002
     6  C   -0.000025   0.000000  -0.000001   0.000000  -0.000001  -0.000000
     7  H    0.000001   0.000000  -0.000000   0.000000  -0.000000   0.000000
     8  C   -0.000026   0.000000  -0.000001   0.000000  -0.000001  -0.000000
     9  C    0.000750  -0.000288   0.000221  -0.000276   0.000186  -0.000001
    10  C   -0.000038  -0.000005   0.000004  -0.000005   0.000005   0.000002
    11  H    0.000001   0.000000  -0.000000   0.000000  -0.000000   0.000000
    12  N    0.000008   0.000004  -0.000070   0.000003  -0.000071  -0.000000
    13  N    0.000009   0.000004  -0.000069   0.000003  -0.000073  -0.000000
    14  B   -0.000007  -0.000001  -0.000010   0.000000  -0.000004   0.000000
    15  F   -0.000000  -0.000000  -0.000000   0.000000   0.000000   0.000000
    16  F    0.000000  -0.000000   0.000000  -0.000000  -0.000000   0.000000
    17  C    0.221925   0.080542  -0.055564   0.080433  -0.055259  -0.152275
    18  C    0.010663   0.332835   0.459054  -0.086614   0.010477   0.111032
    19  C    5.023515  -0.086514   0.010428   0.331383   0.458995   0.111148
    20  C   -0.086514   5.199767  -0.057349   0.004630  -0.001944   0.146998
    21  H    0.010428  -0.057349   0.578899  -0.001933  -0.000072   0.012248
    22  C    0.331383   0.004630  -0.001933   5.201524  -0.057532   0.147279
    23  H    0.458995  -0.001944  -0.000072  -0.057532   0.578978   0.012258
    24  C    0.111148   0.146998   0.012248   0.147279   0.012258   5.146487
    25  H   -0.002481   0.456767  -0.009774   0.010525   0.000010  -0.063812
    26  H   -0.047097   0.010532   0.000010   0.456788  -0.009763  -0.063809
    27  H   -0.000637   0.000372  -0.000045   0.000355  -0.000048  -0.000042
    28  H    0.000000   0.000000  -0.000000   0.000000  -0.000000  -0.000000
    29  H   -0.000620   0.000363  -0.000043   0.000337  -0.000045  -0.000041
    30  H    0.000000   0.000000  -0.000000   0.000000  -0.000000  -0.000000
    31  N    0.005056  -0.086136  -0.000078  -0.086283  -0.000078   0.555201
    32  H    0.000625   0.008537   0.000006  -0.020146  -0.000018  -0.001284
    33  H   -0.000377  -0.020067  -0.000018   0.008549   0.000006  -0.001369
              25         26         27         28         29         30
     1  C   -0.000004  -0.000004  -0.000404   0.000053  -0.032177   0.003275
     2  C   -0.000004  -0.000005  -0.032147   0.003275  -0.000399   0.000053
     3  C   -0.000208  -0.000212  -0.022616  -0.000589  -0.022580  -0.000588
     4  C    0.000001   0.000001   0.000001  -0.000000   0.445413   0.010459
     5  C   -0.000000  -0.000000   0.000000   0.000000  -0.061963  -0.056696
     6  C    0.000000   0.000000  -0.000000   0.000005   0.011172   0.431788
     7  H   -0.000000  -0.000000  -0.000000  -0.000000  -0.004313  -0.003739
     8  C    0.000000   0.000000   0.011174   0.431793  -0.000000   0.000005
     9  C    0.000001   0.000001   0.445417   0.010461   0.000001  -0.000000
    10  C   -0.000000  -0.000000  -0.061981  -0.056706   0.000000   0.000000
    11  H   -0.000000  -0.000000  -0.004314  -0.003739  -0.000000  -0.000000
    12  N   -0.000000  -0.000000  -0.000013   0.000149   0.005366  -0.033249
    13  N   -0.000000  -0.000000   0.005366  -0.033247  -0.000013   0.000149
    14  B   -0.000000  -0.000000   0.000282   0.000942   0.000282   0.000943
    15  F    0.000000  -0.000000   0.000001   0.000235   0.000001   0.000233
    16  F   -0.000000   0.000000   0.000001   0.000984   0.000001   0.000987
    17  C    0.012228   0.012226   0.007757   0.000003   0.007767   0.000003
    18  C   -0.047065  -0.002482  -0.000624   0.000000  -0.000615   0.000000
    19  C   -0.002481  -0.047097  -0.000637   0.000000  -0.000620   0.000000
    20  C    0.456767   0.010532   0.000372   0.000000   0.000363   0.000000
    21  H   -0.009774   0.000010  -0.000045  -0.000000  -0.000043  -0.000000
    22  C    0.010525   0.456788   0.000355   0.000000   0.000337   0.000000
    23  H    0.000010  -0.009763  -0.000048  -0.000000  -0.000045  -0.000000
    24  C   -0.063812  -0.063809  -0.000042  -0.000000  -0.000041  -0.000000
    25  H    0.569566  -0.000066  -0.000001  -0.000000  -0.000001  -0.000000
    26  H   -0.000066   0.569659  -0.000001  -0.000000  -0.000001  -0.000000
    27  H   -0.000001  -0.000001   0.628733  -0.000134  -0.000001  -0.000000
    28  H   -0.000000  -0.000000  -0.000134   0.590408  -0.000000  -0.000000
    29  H   -0.000001  -0.000001  -0.000001  -0.000000   0.628655  -0.000134
    30  H   -0.000000  -0.000000  -0.000000  -0.000000  -0.000134   0.590414
    31  N   -0.007720  -0.007758  -0.000002   0.000000  -0.000002   0.000000
    32  H   -0.000167   0.003547  -0.000000  -0.000000  -0.000000  -0.000000
    33  H    0.003533  -0.000165  -0.000000  -0.000000  -0.000000  -0.000000
              31         32         33
     1  C   -0.000000  -0.000000  -0.000000
     2  C   -0.000000  -0.000000  -0.000000
     3  C    0.000013   0.000000   0.000000
     4  C    0.000000   0.000000   0.000000
     5  C    0.000000  -0.000000  -0.000000
     6  C   -0.000000   0.000000   0.000000
     7  H   -0.000000  -0.000000  -0.000000
     8  C   -0.000000   0.000000   0.000000
     9  C    0.000000   0.000000   0.000000
    10  C    0.000000  -0.000000  -0.000000
    11  H   -0.000000  -0.000000  -0.000000
    12  N    0.000000  -0.000000  -0.000000
    13  N    0.000000  -0.000000  -0.000000
    14  B    0.000000  -0.000000  -0.000000
    15  F    0.000000  -0.000000   0.000000
    16  F    0.000000   0.000000  -0.000000
    17  C   -0.000163   0.000002   0.000002
    18  C    0.005040  -0.000375   0.000618
    19  C    0.005056   0.000625  -0.000377
    20  C   -0.086136   0.008537  -0.020067
    21  H   -0.000078   0.000006  -0.000018
    22  C   -0.086283  -0.020146   0.008549
    23  H   -0.000078  -0.000018   0.000006
    24  C    0.555201  -0.001284  -0.001369
    25  H   -0.007720  -0.000167   0.003533
    26  H   -0.007758   0.003547  -0.000165
    27  H   -0.000002  -0.000000  -0.000000
    28  H    0.000000  -0.000000  -0.000000
    29  H   -0.000002  -0.000000  -0.000000
    30  H    0.000000  -0.000000  -0.000000
    31  N    5.865714   0.369561   0.369559
    32  H    0.369561   0.444341  -0.021122
    33  H    0.369559  -0.021122   0.444409
 Mulliken charges:
               1
     1  C    0.062535
     2  C    0.062666
     3  C   -0.013107
     4  C   -0.144626
     5  C   -0.106298
     6  C    0.031842
     7  H    0.030266
     8  C    0.031902
     9  C   -0.144503
    10  C   -0.106311
    11  H    0.030271
    12  N   -0.181906
    13  N   -0.181893
    14  B    0.174727
    15  F   -0.270480
    16  F   -0.271572
    17  C   -0.074665
    18  C    0.057913
    19  C    0.058208
    20  C   -0.000007
    21  H    0.074380
    22  C   -0.000204
    23  H    0.074326
    24  C    0.038913
    25  H    0.078671
    26  H    0.078598
    27  H    0.023551
    28  H    0.056106
    29  H    0.023589
    30  H    0.056098
    31  N    0.018075
    32  H    0.216492
    33  H    0.216443
 Sum of Mulliken charges =  -0.00000
 Mulliken charges with hydrogens summed into heavy atoms:
               1
     1  C    0.062535
     2  C    0.062666
     3  C   -0.013107
     4  C   -0.121037
     5  C   -0.076032
     6  C    0.087939
     8  C    0.088008
     9  C   -0.120952
    10  C   -0.076040
    12  N   -0.181906
    13  N   -0.181893
    14  B    0.174727
    15  F   -0.270480
    16  F   -0.271572
    17  C   -0.074665
    18  C    0.132293
    19  C    0.132534
    20  C    0.078664
    22  C    0.078394
    24  C    0.038913
    31  N    0.451010
 Electronic spatial extent (au):  <R**2>=           6118.9906
 Charge=             -0.0000 electrons
 Dipole moment (field-independent basis, Debye):
    X=            -29.9248    Y=             -0.0175    Z=             -0.1015  Tot=             29.9249
 Quadrupole moment (field-independent basis, Debye-Ang):
   XX=            -42.4495   YY=           -125.2553   ZZ=           -116.0403
   XY=             -0.0562   XZ=             -1.1208   YZ=              0.0786
 Traceless Quadrupole moment (field-independent basis, Debye-Ang):
   XX=             52.1322   YY=            -30.6736   ZZ=            -21.4586
   XY=             -0.0562   XZ=             -1.1208   YZ=              0.0786
 Octapole moment (field-independent basis, Debye-Ang**2):
  XXX=           -718.5855  YYY=              0.1955  ZZZ=              1.5559  XYY=             16.1333
  XXY=              0.0271  XXZ=              1.3598  XZZ=            -64.2051  YZZ=             -0.0255
  YYZ=             -0.1309  XYZ=             -0.3242
 Hexadecapole moment (field-independent basis, Debye-Ang**3):
 XXXX=          -1942.4418 YYYY=          -2078.1223 ZZZZ=           -413.8920 XXXY=             -2.4230
 XXXZ=            -18.1386 YYYX=              0.5150 YYYZ=             -0.1228 ZZZX=             -3.4936
 ZZZY=              0.6188 XXYY=          -1215.3679 XXZZ=           -820.1729 YYZZ=           -496.4358
 XXYZ=              1.3277 YYXZ=              0.5950 ZZXY=              0.1439
 N-N= 1.586393974666D+03 E-N=-5.430039304401D+03  KE= 9.572879498531D+02
 Unable to Open any file for archive entry.
 1\1\GINC-X1002C0S7B1N0\SP\RwB97XD TD-FC\def2SVP\C15H12B1F2N3\1008721\1
 0-Oct-2025\0\\# td=(nstates=3,root=1) wb97xd scrf=(smd,solvent=ethanol
 ,correctedlr,noneq=save) def2svp\\BDP-NH2_ethanol_wb97xd_wb97xd_wb97xd
 \\0,1\C,0,0.619712,-1.234566,-0.02244\C,0,0.613006,1.231537,-0.024903\
 C,0,-0.099937,-0.003447,-0.016017\C,0,0.163863,-2.559573,-0.041921\C,0
 ,1.317103,-3.383808,-0.049379\C,0,2.414782,-2.540312,-0.033873\H,0,1.3
 4719,-4.472276,-0.066536\C,0,2.400911,2.547047,-0.037965\C,0,0.149925,
 2.554037,-0.046256\C,0,1.298662,3.384521,-0.054812\H,0,1.322824,4.4731
 13,-0.073376\N,0,1.998018,-1.240122,-0.017285\N,0,1.991268,1.244621,-0
 .019664\B,0,2.901976,0.004777,0.03998\F,0,3.657691,0.00792,1.231773\F,
 0,3.807759,0.006231,-1.039343\C,0,-1.552619,-0.006641,-0.005211\C,0,-2
 .29548,-0.011832,-1.231053\C,0,-2.273178,0.000711,1.234016\C,0,-3.6562
 05,-0.010029,-1.230298\H,0,-1.745077,-0.017312,-2.173251\C,0,-3.633493
 ,0.003578,1.257804\H,0,-1.705671,0.00464,2.166017\C,0,-4.367247,-0.001
 637,0.020467\H,0,-4.227318,-0.014227,-2.160111\H,0,-4.18851,0.009878,2
 .197343\H,0,-0.895241,2.860321,-0.058435\H,0,3.46112,2.796623,-0.03734
 3\H,0,-0.879604,-2.871596,-0.053823\H,0,3.476336,-2.784104,-0.033237\N
 ,0,-5.682188,0.001378,0.033337\H,0,-6.197913,0.007423,0.909946\H,0,-6.
 215583,-0.002375,-0.832631\\Version=ES64L-G16RevC.01\State=1-A\HF=-966
 .8051563\RMSD=4.173e-09\Dipole=-11.7733095,-0.006884,-0.0399272\Quadru
 pole=38.7590238,-22.8050826,-15.9539412,-0.0417947,-0.8333128,0.058427
 6\PG=C01 [X(C15H12B1F2N3)]\\@
 The archive entry for this job was punched.


 The mind is not a vessel to be filled but a fire to be kindled.
                                  -- Plutarch
 Job cpu time:       0 days  5 hours 30 minutes  1.2 seconds.
 Elapsed time:       0 days  0 hours 10 minutes 30.2 seconds.
 File lengths (MBytes):  RWF=    784 Int=      0 D2E=      0 Chk=     25 Scr=      1
 Normal termination of Gaussian 16 at Fri Oct 10 15:40:25 2025.
Chk=     25 Scr=      1
 Normal termination of Gaussian 16 at Fri Oct 10 15:39:21 2025.
