 Entering Gaussian System, Link 0=g16
 Initial command:
 /home/users/sutd/1008721/g16/l1.exe "/home/users/sutd/1008721/scratch/g16/scratch/Gau-2729227.inp" -scrdir="/home/users/sutd/1008721/scratch/g16/scratch/"
 Entering Link 1 = /home/users/sutd/1008721/g16/l1.exe PID=   2729228.
  
 Copyright (c) 1988-2019, Gaussian, Inc.  All Rights Reserved.
  
 This is part of the Gaussian(R) 16 program.  It is based on
 the Gaussian(R) 09 system (copyright 2009, Gaussian, Inc.),
 the Gaussian(R) 03 system (copyright 2003, Gaussian, Inc.),
 the Gaussian(R) 98 system (copyright 1998, Gaussian, Inc.),
 the Gaussian(R) 94 system (copyright 1995, Gaussian, Inc.),
 the Gaussian 92(TM) system (copyright 1992, Gaussian, Inc.),
 the Gaussian 90(TM) system (copyright 1990, Gaussian, Inc.),
 the Gaussian 88(TM) system (copyright 1988, Gaussian, Inc.),
 the Gaussian 86(TM) system (copyright 1986, Carnegie Mellon
 University), and the Gaussian 82(TM) system (copyright 1983,
 Carnegie Mellon University). Gaussian is a federally registered
 trademark of Gaussian, Inc.
  
 This software contains proprietary and confidential information,
 including trade secrets, belonging to Gaussian, Inc.
  
 This software is provided under written license and may be
 used, copied, transmitted, or stored only in accord with that
 written license.
  
 The following legend is applicable only to US Government
 contracts under FAR:
  
                    RESTRICTED RIGHTS LEGEND
  
 Use, reproduction and disclosure by the US Government is
 subject to restrictions as set forth in subparagraphs (a)
 and (c) of the Commercial Computer Software - Restricted
 Rights clause in FAR 52.227-19.
  
 Gaussian, Inc.
 340 Quinnipiac St., Bldg. 40, Wallingford CT 06492
  
  
 ---------------------------------------------------------------
 Warning -- This program may not be used in any manner that
 competes with the business of Gaussian, Inc. or will provide
 assistance to any competitor of Gaussian, Inc.  The licensee
 of this program is prohibited from giving any competitor of
 Gaussian, Inc. access to this program.  By using this program,
 the user acknowledges that Gaussian, Inc. is engaged in the
 business of creating and licensing software in the field of
 computational chemistry and represents and warrants to the
 licensee that it is not a competitor of Gaussian, Inc. and that
 it will not use this program in any manner prohibited above.
 ---------------------------------------------------------------
  

 Cite this work as:
 Gaussian 16, Revision C.01,
 M. J. Frisch, G. W. Trucks, H. B. Schlegel, G. E. Scuseria, 
 M. A. Robb, J. R. Cheeseman, G. Scalmani, V. Barone, 
 G. A. Petersson, H. Nakatsuji, X. Li, M. Caricato, A. V. Marenich, 
 J. Bloino, B. G. Janesko, R. Gomperts, B. Mennucci, H. P. Hratchian, 
 J. V. Ortiz, A. F. Izmaylov, J. L. Sonnenberg, D. Williams-Young, 
 F. Ding, F. Lipparini, F. Egidi, J. Goings, B. Peng, A. Petrone, 
 T. Henderson, D. Ranasinghe, V. G. Zakrzewski, J. Gao, N. Rega, 
 G. Zheng, W. Liang, M. Hada, M. Ehara, K. Toyota, R. Fukuda, 
 J. Hasegawa, M. Ishida, T. Nakajima, Y. Honda, O. Kitao, H. Nakai, 
 T. Vreven, K. Throssell, J. A. Montgomery, Jr., J. E. Peralta, 
 F. Ogliaro, M. J. Bearpark, J. J. Heyd, E. N. Brothers, K. N. Kudin, 
 V. N. Staroverov, T. A. Keith, R. Kobayashi, J. Normand, 
 K. Raghavachari, A. P. Rendell, J. C. Burant, S. S. Iyengar, 
 J. Tomasi, M. Cossi, J. M. Millam, M. Klene, C. Adamo, R. Cammi, 
 J. W. Ochterski, R. L. Martin, K. Morokuma, O. Farkas, 
 J. B. Foresman, and D. J. Fox, Gaussian, Inc., Wallingford CT, 2019.
 
 ******************************************
 Gaussian 16:  ES64L-G16RevC.01  3-Jul-2019
                10-Oct-2025 
 ******************************************
 %nprocshared=32
 Will use up to   32 processors via shared memory.
 %mem=64GB
 %oldchk=06BDP-NH2_ethanol_wb97xd_wb97xd_wb97xd.chk
 %chk=07BDP-NH2_ethanol_wb97xd_wb97xd_wb97xd.chk
 Copying data from "06BDP-NH2_ethanol_wb97xd_wb97xd_wb97xd.chk" to current chk file "07BDP-NH2_ethanol_wb97xd_wb97xd_wb97xd.chk"
 IOpt=  2 FromEx=T IUOpen= 4 IOptOp= 5 NList=   0 IFRang= 0 IUIn= 4 IUOut= 2.
 ----------------------------------------------------------------------
 # wb97xd/def2svp geom=check guess=read SCRF=(SMD, solvent=ethanol, Non
 Eq=Read)
 ----------------------------------------------------------------------
 1/29=2,38=1,172=1/1;
 2/12=2,40=1/2;
 3/5=43,7=101,11=2,14=-4,25=1,30=1,70=6032201,72=4,74=-58,116=-2/1,2,3;
 4/5=1/1;
 5/5=2,38=6,53=4/2;
 6/7=2,8=2,9=2,10=2,28=1/1;
 99/5=1,9=1/99;
 ------------------------------------
 BDP-NH2_ethanol_wb97xd_wb97xd_wb97xd
 ------------------------------------
 Structure from the checkpoint file:  "07BDP-NH2_ethanol_wb97xd_wb97xd_wb97xd.chk"
 Charge =  0 Multiplicity = 1
 Z-Matrix found in chk file.
 C,0,0.619712,-1.234566,-0.02244
 C,0,0.613006,1.231537,-0.024903
 C,0,-0.099937,-0.003447,-0.016017
 C,0,0.163863,-2.559573,-0.041921
 C,0,1.317103,-3.383808,-0.049379
 C,0,2.414782,-2.540312,-0.033873
 H,0,1.34719,-4.472276,-0.066536
 C,0,2.400911,2.547047,-0.037965
 C,0,0.149925,2.554037,-0.046256
 C,0,1.298662,3.384521,-0.054812
 H,0,1.322824,4.473113,-0.073376
 N,0,1.998018,-1.240122,-0.017285
 N,0,1.991268,1.244621,-0.019664
 B,0,2.901976,0.004777,0.03998
 F,0,3.657691,0.00792,1.231773
 F,0,3.807759,0.006231,-1.039343
 C,0,-1.552619,-0.006641,-0.005211
 C,0,-2.29548,-0.011832,-1.231053
 C,0,-2.273178,0.000711,1.234016
 C,0,-3.656205,-0.010029,-1.230298
 H,0,-1.745077,-0.017312,-2.173251
 C,0,-3.633493,0.003578,1.257804
 H,0,-1.705671,0.00464,2.166017
 C,0,-4.367247,-0.001637,0.020467
 H,0,-4.227318,-0.014227,-2.160111
 H,0,-4.18851,0.009878,2.197343
 H,0,-0.895241,2.860321,-0.058435
 H,0,3.46112,2.796623,-0.037343
 H,0,-0.879604,-2.871596,-0.053823
 H,0,3.476336,-2.784104,-0.033237
 N,0,-5.682188,0.001378,0.033337
 H,0,-6.197913,0.007423,0.909946
 H,0,-6.215583,-0.002375,-0.832631
 Recover connectivity data from disk.
                          Input orientation:                          
 ---------------------------------------------------------------------
 Center     Atomic      Atomic             Coordinates (Angstroms)
 Number     Number       Type             X           Y           Z
 ---------------------------------------------------------------------
      1          6           0        0.619712   -1.234566   -0.022440
      2          6           0        0.613006    1.231537   -0.024903
      3          6           0       -0.099937   -0.003447   -0.016017
      4          6           0        0.163863   -2.559573   -0.041921
      5          6           0        1.317103   -3.383808   -0.049379
      6          6           0        2.414782   -2.540312   -0.033873
      7          1           0        1.347190   -4.472276   -0.066536
      8          6           0        2.400911    2.547047   -0.037965
      9          6           0        0.149925    2.554037   -0.046256
     10          6           0        1.298662    3.384521   -0.054812
     11          1           0        1.322824    4.473113   -0.073376
     12          7           0        1.998018   -1.240122   -0.017285
     13          7           0        1.991268    1.244621   -0.019664
     14          5           0        2.901976    0.004777    0.039980
     15          9           0        3.657691    0.007920    1.231773
     16          9           0        3.807759    0.006231   -1.039343
     17          6           0       -1.552619   -0.006641   -0.005211
     18          6           0       -2.295480   -0.011832   -1.231053
     19          6           0       -2.273178    0.000711    1.234016
     20          6           0       -3.656205   -0.010029   -1.230298
     21          1           0       -1.745077   -0.017312   -2.173251
     22          6           0       -3.633493    0.003578    1.257804
     23          1           0       -1.705671    0.004640    2.166017
     24          6           0       -4.367247   -0.001637    0.020467
     25          1           0       -4.227318   -0.014227   -2.160111
     26          1           0       -4.188510    0.009878    2.197343
     27          1           0       -0.895241    2.860321   -0.058435
     28          1           0        3.461120    2.796623   -0.037343
     29          1           0       -0.879604   -2.871596   -0.053823
     30          1           0        3.476336   -2.784104   -0.033237
     31          7           0       -5.682188    0.001378    0.033337
     32          1           0       -6.197913    0.007423    0.909946
     33          1           0       -6.215583   -0.002375   -0.832631
 ---------------------------------------------------------------------
                    Distance matrix (angstroms):
                    1          2          3          4          5
     1  C    0.000000
     2  C    2.466113   0.000000
     3  C    1.426040   1.426027   0.000000
     4  C    1.401364   3.817661   2.569833   0.000000
     5  C    2.259717   4.668807   3.665509   1.417527   0.000000
     6  C    2.219770   4.180110   3.572088   2.251016   1.384422
     7  H    3.318725   5.751021   4.697570   2.249289   1.089019
     8  C    4.180133   2.219762   3.572078   5.575120   6.029080
     9  C    3.817693   1.401394   2.569838   5.113631   6.051472
    10  C    4.668831   2.259725   3.665503   6.051462   6.768356
    11  H    5.751049   3.318736   4.697566   7.127612   7.856960
    12  N    1.378327   2.833269   2.435320   2.259576   2.249459
    13  N    2.833292   1.378334   2.435329   4.220402   4.677364
    14  B    2.597806   2.597794   3.002446   3.752314   3.741967
    15  F    3.513707   3.513770   3.959404   4.518977   4.315498
    16  F    3.568937   3.568881   4.039477   4.566857   4.321546
    17  C    2.495420   2.494675   1.452726   3.076543   4.431987
    18  C    3.384401   3.385270   2.509341   3.735423   5.081076
    19  C    3.387241   3.380809   2.507105   3.757957   5.098254
    20  C    4.608891   4.606585   3.757867   4.743979   6.124602
    21  H    3.420515   3.425723   2.712994   3.827494   5.022059
    22  C    4.611050   4.602822   3.756153   4.762241   6.139341
    23  H    3.425256   3.417846   2.709192   3.865920   5.052398
    24  C    5.137287   5.130857   4.267466   5.203642   6.614816
    25  H    5.436227   5.435051   4.651078   5.499817   6.822747
    26  H    5.440136   5.430045   4.649255   5.528068   6.846652
    27  H    4.366289   2.220106   2.972453   5.522429   6.624477
    28  H    4.931968   3.249831   4.530119   6.289735   6.541764
    29  H    2.220090   4.366282   2.972472   1.089185   2.255638
    30  H    3.249844   4.931947   4.530130   3.320085   2.241025
    31  N    6.422197   6.414527   5.582471   6.382824   7.775371
    32  H    6.992274   6.982909   6.167888   6.925873   8.300375
    33  H    6.992565   6.986028   6.169926   6.918223   8.293909
                    6          7          8          9         10
     6  C    0.000000
     7  H    2.207556   0.000000
     8  C    5.087380   7.098031   0.000000
     9  C    5.575134   7.127617   2.251012   0.000000
    10  C    6.029080   7.856956   1.384413   1.417524   0.000000
    11  H    7.098032   8.945425   2.207545   2.249284   1.089018
    12  N    1.365453   3.297396   3.808595   4.220418   4.677374
    13  N    3.808580   5.753255   1.365451   2.259606   2.249469
    14  B    2.592352   4.740539   2.592350   3.752326   3.741961
    15  F    3.104862   5.205399   3.104657   4.518904   4.315293
    16  F    3.071846   5.201709   3.072088   4.566978   4.321772
    17  C    4.707503   5.324899   4.706676   3.075291   4.430829
    18  C    5.478414   5.875432   5.479727   3.737303   5.082973
    19  C    5.480995   5.899671   5.472556   3.745664   5.086186
    20  C    6.685106   6.804407   6.681987   4.739516   6.120085
    21  H    5.314781   5.817823   5.322086   3.837574   5.032355
    22  C    6.687409   6.826005   6.675499   4.745489   6.122082
    23  H    5.319251   5.860634   5.308991   3.851858   5.038025
    24  C    7.241805   7.255961   7.232369   5.190449   6.601080
    25  H    7.417512   7.438575   7.415999   5.497692   6.820574
    26  H    7.421944   7.473876   7.406369   5.507132   6.824183
    27  H    6.334327   7.667825   3.311069   1.089188   2.255662
    28  H    5.438539   7.570102   1.089189   3.320081   2.241016
    29  H    3.311061   2.742435   6.334329   5.522452   6.624488
    30  H    1.089189   2.717406   5.438541   6.289748   6.541763
    31  N    8.486791   8.332809   8.474786   6.366785   7.757944
    32  H    9.031072   8.828918   9.015986   6.906129   8.278538
    33  H    9.031187   8.818302   9.020810   6.904587   8.278885
                   11         12         13         14         15
    11  H    0.000000
    12  N    5.753268   0.000000
    13  N    3.297402   2.484753   0.000000
    14  B    4.740527   1.539543   1.539532   0.000000
    15  F    5.205090   2.423277   2.423322   1.411200   0.000000
    16  F    5.202022   2.423461   2.423426   1.409036   2.276069
    17  C    5.323628   3.758809   3.758324   4.454839   5.355154
    18  C    5.877676   4.627748   4.628428   5.350640   6.442526
    19  C    5.885821   4.620448   4.615683   5.311116   5.930874
    20  C    6.799100   5.912256   5.910477   6.680087   7.717201
    21  H    5.829701   4.489344   4.493405   5.147230   6.386292
    22  C    6.805429   5.906484   5.900004   6.647966   7.291232
    23  H    5.844135   4.475886   4.470136   5.074490   5.444123
    24  C    7.239413   6.484741   6.479621   7.269252   8.115848
    25  H    7.436045   6.696964   6.696045   7.461072   8.583632
    26  H    7.446572   6.688812   6.680521   7.411426   7.905391
    27  H    2.742469   5.018593   3.308160   4.752123   5.525398
    28  H    2.717393   4.293761   2.137636   2.848337   3.070205
    29  H    7.667843   3.308134   5.018597   4.752122   5.525524
    30  H    7.570101   2.137653   4.293744   2.848352   3.070592
    31  N    8.311317   7.780067   7.773699   8.584167   9.416455
    32  H    8.801750   8.342027   8.334118   9.141380   9.860857
    33  H    8.799661   8.346260   8.340762   9.159224  10.086794
                   16         17         18         19         20
    16  F    0.000000
    17  C    5.459235   0.000000
    18  C    6.106276   1.433373   0.000000
    19  C    6.491994   1.433507   2.465202   0.000000
    20  C    7.466424   2.434322   1.360726   2.825902   0.000000
    21  H    5.667476   2.176592   1.091197   3.447997   2.131109
    22  C    7.787755   2.434204   2.825761   1.360526   2.488243
    23  H    6.377480   2.176645   3.447931   1.091195   3.916600
    24  C    8.243421   2.814750   2.420460   2.420296   1.438772
    25  H    8.112891   3.434773   2.143631   3.916502   1.091210
    26  H    8.626498   3.435031   3.916367   2.143964   3.468785
    27  H    5.588043   2.941845   3.403669   3.427318   4.151517
    28  H    2.985038   5.744293   6.515428   6.505048   7.743175
    29  H    5.587890   2.943345   3.401298   3.442488   4.157183
    30  H    2.984637   5.745039   6.514147   6.512913   7.746069
    31  N    9.550380   4.129757   3.615058   3.614274   2.387784
    32  H   10.193782   4.734603   4.451206   3.938097   3.322834
    33  H   10.025477   4.735808   3.940309   4.451247   2.590099
                   21         22         23         24         25
    21  H    0.000000
    22  C    3.916464   0.000000
    23  H    4.339502   2.131044   0.000000
    24  C    3.418833   1.438550   3.418686   0.000000
    25  H    2.482278   3.469162   5.007439   2.185099   0.000000
    26  H    5.007314   1.091246   2.483042   2.184232   4.357693
    27  H    3.670891   4.170311   3.709434   4.500206   4.876762
    28  H    6.291647   7.733824   6.272615   8.313659   8.456897
    29  H    3.658956   4.191765   3.725964   4.517282   4.879364
    30  H    6.284740   7.745168   6.282277   8.322668   8.458256
    31  N    4.513338   2.386729   4.512319   1.315007   2.632129
    32  H    5.416130   2.587908   4.664543   2.035336   3.648145
    33  H    4.667216   3.322220   5.415833   2.035712   2.390720
                   26         27         28         29         30
    26  H    0.000000
    27  H    4.905016   0.000000
    28  H    8.442548   4.356878   0.000000
    29  H    4.931480   5.731940   7.139388   0.000000
    30  H    8.457641   7.139388   5.580749   4.356867   0.000000
    31  N    2.629462   5.576454   9.561301   5.596998   9.572978
    32  H    2.386440   6.098780  10.098213   6.123889  10.113027
    33  H    3.645534   6.091014  10.104724   6.108326  10.114857
                   31         32         33
    31  N    0.000000
    32  H    1.017080   0.000000
    33  H    1.017067   1.742694   0.000000
 Stoichiometry    C15H12BF2N3
 Framework group  C1[X(C15H12BF2N3)]
 Deg. of freedom    93
 Full point group                 C1      NOp   1
 Largest Abelian subgroup         C1      NOp   1
 Largest concise Abelian subgroup C1      NOp   1
                         Standard orientation:                         
 ---------------------------------------------------------------------
 Center     Atomic      Atomic             Coordinates (Angstroms)
 Number     Number       Type             X           Y           Z
 ---------------------------------------------------------------------
      1          6           0        0.619712   -1.234566   -0.022440
      2          6           0        0.613006    1.231537   -0.024903
      3          6           0       -0.099937   -0.003447   -0.016017
      4          6           0        0.163863   -2.559573   -0.041921
      5          6           0        1.317103   -3.383808   -0.049379
      6          6           0        2.414782   -2.540312   -0.033873
      7          1           0        1.347190   -4.472276   -0.066536
      8          6           0        2.400911    2.547047   -0.037965
      9          6           0        0.149925    2.554037   -0.046256
     10          6           0        1.298662    3.384521   -0.054812
     11          1           0        1.322824    4.473113   -0.073376
     12          7           0        1.998018   -1.240122   -0.017285
     13          7           0        1.991268    1.244621   -0.019664
     14          5           0        2.901976    0.004777    0.039980
     15          9           0        3.657691    0.007920    1.231773
     16          9           0        3.807759    0.006231   -1.039343
     17          6           0       -1.552619   -0.006641   -0.005211
     18          6           0       -2.295480   -0.011832   -1.231053
     19          6           0       -2.273178    0.000711    1.234016
     20          6           0       -3.656205   -0.010029   -1.230298
     21          1           0       -1.745077   -0.017312   -2.173251
     22          6           0       -3.633493    0.003578    1.257804
     23          1           0       -1.705671    0.004640    2.166017
     24          6           0       -4.367247   -0.001637    0.020467
     25          1           0       -4.227318   -0.014227   -2.160111
     26          1           0       -4.188510    0.009878    2.197343
     27          1           0       -0.895241    2.860321   -0.058435
     28          1           0        3.461120    2.796623   -0.037343
     29          1           0       -0.879604   -2.871596   -0.053823
     30          1           0        3.476336   -2.784104   -0.033237
     31          7           0       -5.682188    0.001378    0.033337
     32          1           0       -6.197913    0.007423    0.909946
     33          1           0       -6.215583   -0.002375   -0.832631
 ---------------------------------------------------------------------
 Rotational constants (GHZ):           0.5722705           0.2134349           0.1705399
 Standard basis: def2SVP (5D, 7F)
 There are   375 symmetry adapted cartesian basis functions of A   symmetry.
 There are   354 symmetry adapted basis functions of A   symmetry.
   354 basis functions,   609 primitive gaussians,   375 cartesian basis functions
    73 alpha electrons       73 beta electrons
       nuclear repulsion energy      1586.4194370545 Hartrees.
 NAtoms=   33 NActive=   33 NUniq=   33 SFac= 1.00D+00 NAtFMM=   60 NAOKFM=F Big=F
 Integral buffers will be    131072 words long.
 Raffenetti 2 integral format.
 Two-electron integral symmetry is turned on.
 Nuclear repulsion after empirical dispersion term =     1586.3946405348 Hartrees.
 ------------------------------------------------------------------------------
 Polarizable Continuum Model (PCM)
 =================================
 Model                : PCM.
 Atomic radii         : SMD-Coulomb.
 Polarization charges : Total charges.
 Charge compensation  : None.
 Solution method      : On-the-fly selection.
 Cavity type          : VdW (van der Waals Surface) (Alpha=1.000).
 Cavity algorithm     : GePol (No added spheres)
                        Default sphere list used, NSphG=   33.
                        Lebedev-Laikov grids with approx.  5.0 points / Ang**2.
                        Smoothing algorithm: York/Karplus (Gamma=1.0000).
                        Polarization charges: spherical gaussians, with
                                              point-specific exponents (IZeta= 3).
                        Self-potential: point-specific (ISelfS= 7).
                        Self-field    : sphere-specific E.n sum rule (ISelfD= 2).
 Solvent              : Ethanol, Eps=  24.852000 Eps(inf)=   1.852593
 ------------------------------------------------------------------------------
 ------------------------------------------------------------------------------
 Atomic radii for non-electrostatic terms: SMD-CDS.
 ------------------------------------------------------------------------------
 Nuclear repulsion after PCM non-electrostatic terms =     1586.3939746656 Hartrees.
 One-electron integrals computed using PRISM.
   1 Symmetry operations used in ECPInt.
 ECPInt:  NShTT=   13203 NPrTT=   49137 LenC2=   11986 LenP2D=   31053.
 LDataN:  DoStor=T MaxTD1= 4 Len=   56
 NBasis=   354 RedAO= T EigKep=  2.85D-04  NBF=   354
 NBsUse=   354 1.00D-06 EigRej= -1.00D+00 NBFU=   354
 Initial guess from the checkpoint file:  "07BDP-NH2_ethanol_wb97xd_wb97xd_wb97xd.chk"
 B after Tr=     0.000000    0.000000    0.000000
         Rot=    1.000000   -0.000000    0.000000   -0.000000 Ang=   0.00 deg.
 Requested convergence on RMS density matrix=1.00D-08 within 128 cycles.
 Requested convergence on MAX density matrix=1.00D-06.
 Requested convergence on             energy=1.00D-06.
 No special actions if energy rises.
 Inv3:  Mode=1 IEnd=    20326827.
 Iteration    1 A*A^-1 deviation from unit magnitude is 5.44D-15 for   2593.
 Iteration    1 A*A^-1 deviation from orthogonality  is 2.50D-15 for   1916    338.
 Iteration    1 A^-1*A deviation from unit magnitude is 5.44D-15 for   2593.
 Iteration    1 A^-1*A deviation from orthogonality  is 2.26D-14 for   1248   1233.
 NEqPCM:  Using non-equilibrium solvation (IEInf=1, Eps=  24.8520, EpsInf=   1.8526)
 Inv3:  Mode=1 IEnd=    20326827.
 Iteration    1 A*A^-1 deviation from unit magnitude is 6.88D-15 for   2582.
 Iteration    1 A*A^-1 deviation from orthogonality  is 2.08D-15 for   1122    329.
 Iteration    1 A^-1*A deviation from unit magnitude is 6.88D-15 for   2582.
 Iteration    1 A^-1*A deviation from orthogonality  is 2.91D-15 for   2600    947.
 Error on total polarization charges =  0.01984
 SCF Done:  E(RwB97XD) =  -966.787740126     A.U. after   15 cycles
            NFock= 15  Conv=0.69D-08     -V/T= 2.0100
 SMD-CDS (non-electrostatic) energy       (kcal/mol) =      -0.42
 (included in total energy above)

 **********************************************************************

            Population analysis using the SCF Density.

 **********************************************************************

 Orbital symmetries:
       Occupied  (A) (A) (A) (A) (A) (A) (A) (A) (A) (A) (A) (A)
                 (A) (A) (A) (A) (A) (A) (A) (A) (A) (A) (A) (A)
                 (A) (A) (A) (A) (A) (A) (A) (A) (A) (A) (A) (A)
                 (A) (A) (A) (A) (A) (A) (A) (A) (A) (A) (A) (A)
                 (A) (A) (A) (A) (A) (A) (A) (A) (A) (A) (A) (A)
                 (A) (A) (A) (A) (A) (A) (A) (A) (A) (A) (A) (A)
                 (A)
       Virtual   (A) (A) (A) (A) (A) (A) (A) (A) (A) (A) (A) (A)
                 (A) (A) (A) (A) (A) (A) (A) (A) (A) (A) (A) (A)
                 (A) (A) (A) (A) (A) (A) (A) (A) (A) (A) (A) (A)
                 (A) (A) (A) (A) (A) (A) (A) (A) (A) (A) (A) (A)
                 (A) (A) (A) (A) (A) (A) (A) (A) (A) (A) (A) (A)
                 (A) (A) (A) (A) (A) (A) (A) (A) (A) (A) (A) (A)
                 (A) (A) (A) (A) (A) (A) (A) (A) (A) (A) (A) (A)
                 (A) (A) (A) (A) (A) (A) (A) (A) (A) (A) (A) (A)
                 (A) (A) (A) (A) (A) (A) (A) (A) (A) (A) (A) (A)
                 (A) (A) (A) (A) (A) (A) (A) (A) (A) (A) (A) (A)
                 (A) (A) (A) (A) (A) (A) (A) (A) (A) (A) (A) (A)
                 (A) (A) (A) (A) (A) (A) (A) (A) (A) (A) (A) (A)
                 (A) (A) (A) (A) (A) (A) (A) (A) (A) (A) (A) (A)
                 (A) (A) (A) (A) (A) (A) (A) (A) (A) (A) (A) (A)
                 (A) (A) (A) (A) (A) (A) (A) (A) (A) (A) (A) (A)
                 (A) (A) (A) (A) (A) (A) (A) (A) (A) (A) (A) (A)
                 (A) (A) (A) (A) (A) (A) (A) (A) (A) (A) (A) (A)
                 (A) (A) (A) (A) (A) (A) (A) (A) (A) (A) (A) (A)
                 (A) (A) (A) (A) (A) (A) (A) (A) (A) (A) (A) (A)
                 (A) (A) (A) (A) (A) (A) (A) (A) (A) (A) (A) (A)
                 (A) (A) (A) (A) (A) (A) (A) (A) (A) (A) (A) (A)
                 (A) (A) (A) (A) (A) (A) (A) (A) (A) (A) (A) (A)
                 (A) (A) (A) (A) (A) (A) (A) (A) (A) (A) (A) (A)
                 (A) (A) (A) (A) (A)
 The electronic state is 1-A.
 Alpha  occ. eigenvalues --  -24.78241 -24.78131 -14.49570 -14.49568 -14.42414
 Alpha  occ. eigenvalues --  -10.38299 -10.36227 -10.36224 -10.35422 -10.35412
 Alpha  occ. eigenvalues --  -10.32992 -10.32989 -10.32698 -10.31775 -10.31774
 Alpha  occ. eigenvalues --  -10.29233 -10.29228 -10.29027 -10.26976 -10.26974
 Alpha  occ. eigenvalues --   -6.95716  -1.26651  -1.23174  -1.10804  -1.08986
 Alpha  occ. eigenvalues --   -0.99921  -0.94879  -0.90669  -0.89428  -0.88549
 Alpha  occ. eigenvalues --   -0.84217  -0.82478  -0.81070  -0.75534  -0.71580
 Alpha  occ. eigenvalues --   -0.70098  -0.68631  -0.68424  -0.68095  -0.66543
 Alpha  occ. eigenvalues --   -0.64890  -0.61088  -0.60463  -0.59292  -0.59031
 Alpha  occ. eigenvalues --   -0.58213  -0.56312  -0.55294  -0.53836  -0.53640
 Alpha  occ. eigenvalues --   -0.53600  -0.53271  -0.51250  -0.49943  -0.49848
 Alpha  occ. eigenvalues --   -0.49419  -0.49169  -0.48945  -0.48425  -0.48083
 Alpha  occ. eigenvalues --   -0.48057  -0.46509  -0.45853  -0.45063  -0.44312
 Alpha  occ. eigenvalues --   -0.40611  -0.38183  -0.38151  -0.36340  -0.35442
 Alpha  occ. eigenvalues --   -0.32407  -0.31086  -0.24359
 Alpha virt. eigenvalues --   -0.06841   0.07719   0.08929   0.08945   0.09528
 Alpha virt. eigenvalues --    0.12239   0.15912   0.16609   0.16695   0.17362
 Alpha virt. eigenvalues --    0.18831   0.19169   0.19824   0.19991   0.20448
 Alpha virt. eigenvalues --    0.21180   0.21550   0.23871   0.24181   0.24636
 Alpha virt. eigenvalues --    0.24790   0.26817   0.26965   0.27351   0.28456
 Alpha virt. eigenvalues --    0.28882   0.29533   0.32504   0.33257   0.33432
 Alpha virt. eigenvalues --    0.35163   0.37151   0.37944   0.39156   0.39606
 Alpha virt. eigenvalues --    0.40750   0.41805   0.42047   0.42784   0.44370
 Alpha virt. eigenvalues --    0.44769   0.45810   0.46945   0.47193   0.47947
 Alpha virt. eigenvalues --    0.48438   0.48582   0.49522   0.49857   0.50590
 Alpha virt. eigenvalues --    0.51022   0.52086   0.52304   0.53314   0.53923
 Alpha virt. eigenvalues --    0.55633   0.57270   0.57644   0.57835   0.58041
 Alpha virt. eigenvalues --    0.58362   0.59364   0.60101   0.62827   0.62843
 Alpha virt. eigenvalues --    0.63198   0.63369   0.65119   0.66038   0.66197
 Alpha virt. eigenvalues --    0.67330   0.68004   0.69664   0.71613   0.72478
 Alpha virt. eigenvalues --    0.72940   0.73311   0.74163   0.74343   0.74886
 Alpha virt. eigenvalues --    0.75174   0.75517   0.77511   0.78466   0.78669
 Alpha virt. eigenvalues --    0.78751   0.79498   0.79828   0.80400   0.80447
 Alpha virt. eigenvalues --    0.81856   0.82070   0.82301   0.83019   0.84657
 Alpha virt. eigenvalues --    0.86041   0.86727   0.87974   0.90841   0.90954
 Alpha virt. eigenvalues --    0.92730   0.93420   0.93606   0.93728   0.94508
 Alpha virt. eigenvalues --    0.97336   0.98605   0.99348   1.02106   1.03336
 Alpha virt. eigenvalues --    1.06270   1.06861   1.09700   1.11105   1.12330
 Alpha virt. eigenvalues --    1.13726   1.13943   1.18029   1.19671   1.21539
 Alpha virt. eigenvalues --    1.21812   1.22047   1.23842   1.25301   1.26215
 Alpha virt. eigenvalues --    1.28766   1.30017   1.32530   1.33268   1.33292
 Alpha virt. eigenvalues --    1.34081   1.35019   1.35305   1.35754   1.36349
 Alpha virt. eigenvalues --    1.37450   1.38273   1.38748   1.40608   1.40638
 Alpha virt. eigenvalues --    1.42055   1.42384   1.43358   1.44006   1.45197
 Alpha virt. eigenvalues --    1.48527   1.49202   1.52929   1.56053   1.57342
 Alpha virt. eigenvalues --    1.59760   1.61333   1.62818   1.62926   1.68886
 Alpha virt. eigenvalues --    1.69085   1.70005   1.71282   1.71860   1.72383
 Alpha virt. eigenvalues --    1.74206   1.75919   1.77408   1.77532   1.79438
 Alpha virt. eigenvalues --    1.79716   1.79814   1.80949   1.81296   1.82609
 Alpha virt. eigenvalues --    1.83357   1.85883   1.86018   1.86248   1.86399
 Alpha virt. eigenvalues --    1.87737   1.89159   1.89734   1.91898   1.92378
 Alpha virt. eigenvalues --    1.92919   1.93477   1.95572   1.95832   1.97107
 Alpha virt. eigenvalues --    1.98533   1.98892   1.99542   2.00445   2.01092
 Alpha virt. eigenvalues --    2.01579   2.01765   2.03126   2.04131   2.06528
 Alpha virt. eigenvalues --    2.08376   2.08497   2.10085   2.11467   2.13485
 Alpha virt. eigenvalues --    2.14797   2.16434   2.19380   2.19821   2.21825
 Alpha virt. eigenvalues --    2.23352   2.23977   2.24198   2.26946   2.27115
 Alpha virt. eigenvalues --    2.28984   2.29080   2.31341   2.31478   2.32038
 Alpha virt. eigenvalues --    2.34432   2.36470   2.36584   2.37265   2.37341
 Alpha virt. eigenvalues --    2.38229   2.40230   2.43567   2.46675   2.49486
 Alpha virt. eigenvalues --    2.49626   2.50961   2.51367   2.55621   2.61013
 Alpha virt. eigenvalues --    2.61386   2.61934   2.65753   2.67122   2.68640
 Alpha virt. eigenvalues --    2.70002   2.73589   2.74515   2.75781   2.75975
 Alpha virt. eigenvalues --    2.76231   2.77074   2.77309   2.77558   2.78902
 Alpha virt. eigenvalues --    2.79411   2.81414   2.84042   2.86962   2.89952
 Alpha virt. eigenvalues --    2.91422   2.93519   2.95803   2.97783   2.99771
 Alpha virt. eigenvalues --    3.02505   3.04943   3.07570   3.09416   3.17250
 Alpha virt. eigenvalues --    3.17720   3.18187   3.19999   3.20809   3.22283
 Alpha virt. eigenvalues --    3.23395   3.28552   3.31087   3.32426   3.33743
 Alpha virt. eigenvalues --    3.36763   3.49232   3.51164   3.52332   3.53323
 Alpha virt. eigenvalues --    3.57145   3.67969   3.69530   3.72870   3.79852
 Alpha virt. eigenvalues --    3.81221
          Condensed to atoms (all electrons):
               1          2          3          4          5          6
     1  C    5.241478  -0.055154   0.264560   0.412137  -0.012689  -0.133098
     2  C   -0.055154   5.242365   0.264103   0.013301  -0.000626  -0.000096
     3  C    0.264560   0.264103   5.373217  -0.103176   0.020224   0.009026
     4  C    0.412137   0.013301  -0.103176   5.093964   0.347890  -0.017873
     5  C   -0.012689  -0.000626   0.020224   0.347890   5.083520   0.384508
     6  C   -0.133098  -0.000096   0.009026  -0.017873   0.384508   4.861770
     7  H    0.010036   0.000008  -0.000433  -0.050922   0.450561  -0.052023
     8  C   -0.000095  -0.133118   0.009019   0.000027  -0.000002   0.000001
     9  C    0.013253   0.412184  -0.103240  -0.000060   0.000000   0.000027
    10  C   -0.000625  -0.012621   0.020237   0.000000   0.000000  -0.000002
    11  H    0.000008   0.010033  -0.000433   0.000000   0.000000   0.000000
    12  N    0.434458  -0.003783  -0.076334  -0.102071  -0.065575   0.432070
    13  N   -0.003776   0.434552  -0.076415  -0.000252   0.000000   0.000336
    14  B   -0.049372  -0.049374  -0.010677   0.002817  -0.001041  -0.010506
    15  F   -0.003460  -0.003458   0.001566  -0.000038  -0.000090  -0.001348
    16  F   -0.003504  -0.003505   0.001668  -0.000082   0.000134  -0.000391
    17  C   -0.104275  -0.104701   0.427599  -0.004578   0.000146   0.000055
    18  C   -0.011548  -0.011578  -0.048582   0.000415   0.000026  -0.000006
    19  C   -0.011274  -0.011704  -0.048418   0.000494   0.000019  -0.000005
    20  C    0.001111   0.001132   0.006534  -0.000238  -0.000007   0.000000
    21  H   -0.001600  -0.001679  -0.008468   0.000355   0.000000  -0.000002
    22  C    0.001106   0.001159   0.006482  -0.000205  -0.000007   0.000000
    23  H   -0.001608  -0.001676  -0.008608   0.000281   0.000003  -0.000002
    24  C    0.000002   0.000005   0.002039  -0.000006   0.000001  -0.000000
    25  H   -0.000010  -0.000010  -0.000266  -0.000004  -0.000000   0.000000
    26  H   -0.000010  -0.000011  -0.000264  -0.000003  -0.000000   0.000000
    27  H   -0.000186  -0.024271  -0.018928   0.000001   0.000000  -0.000000
    28  H    0.000061   0.002861  -0.000442  -0.000000   0.000000   0.000005
    29  H   -0.024399  -0.000175  -0.018861   0.446606  -0.059029   0.009931
    30  H    0.002860   0.000060  -0.000442   0.009290  -0.051684   0.429211
    31  N   -0.000000  -0.000000   0.000008   0.000000   0.000000  -0.000000
    32  H   -0.000000  -0.000000   0.000001   0.000000   0.000000   0.000000
    33  H   -0.000000  -0.000000   0.000001   0.000000   0.000000   0.000000
               7          8          9         10         11         12
     1  C    0.010036  -0.000095   0.013253  -0.000625   0.000008   0.434458
     2  C    0.000008  -0.133118   0.412184  -0.012621   0.010033  -0.003783
     3  C   -0.000433   0.009019  -0.103240   0.020237  -0.000433  -0.076334
     4  C   -0.050922   0.000027  -0.000060   0.000000   0.000000  -0.102071
     5  C    0.450561  -0.000002   0.000000   0.000000   0.000000  -0.065575
     6  C   -0.052023   0.000001   0.000027  -0.000002   0.000000   0.432070
     7  H    0.584780   0.000000   0.000000   0.000000  -0.000000   0.004250
     8  C    0.000000   4.861779  -0.017846   0.384447  -0.052028   0.000335
     9  C    0.000000  -0.017846   5.093901   0.347819  -0.050915  -0.000254
    10  C    0.000000   0.384447   0.347819   5.083599   0.450565   0.000001
    11  H   -0.000000  -0.052028  -0.050915   0.450565   0.584766   0.000002
    12  N    0.004250   0.000335  -0.000254   0.000001   0.000002   6.394114
    13  N    0.000002   0.432092  -0.102045  -0.065576   0.004250  -0.051158
    14  B    0.000115  -0.010502   0.002817  -0.001041   0.000115   0.300007
    15  F    0.000001  -0.001345  -0.000038  -0.000090   0.000001  -0.034729
    16  F    0.000001  -0.000396  -0.000082   0.000134   0.000001  -0.033835
    17  C   -0.000023   0.000058  -0.004546   0.000144  -0.000023   0.003760
    18  C    0.000000  -0.000006   0.000400   0.000027   0.000000  -0.000071
    19  C    0.000000  -0.000006   0.000499   0.000021   0.000000  -0.000073
    20  C    0.000000   0.000000  -0.000240  -0.000007   0.000000   0.000003
    21  H   -0.000000  -0.000002   0.000340   0.000001  -0.000000  -0.000074
    22  C    0.000000   0.000000  -0.000222  -0.000008   0.000000   0.000003
    23  H   -0.000000  -0.000002   0.000293   0.000003  -0.000000  -0.000074
    24  C    0.000000  -0.000000  -0.000009   0.000001   0.000000  -0.000000
    25  H   -0.000000   0.000000  -0.000004  -0.000000  -0.000000  -0.000000
    26  H   -0.000000   0.000000  -0.000003  -0.000000  -0.000000  -0.000000
    27  H   -0.000000   0.009934   0.446619  -0.059058  -0.003777  -0.000012
    28  H   -0.000000   0.429210   0.009292  -0.051688  -0.003448   0.000142
    29  H   -0.003777  -0.000000   0.000001   0.000000  -0.000000   0.004526
    30  H   -0.003448   0.000005  -0.000000   0.000000  -0.000000  -0.030172
    31  N   -0.000000  -0.000000   0.000000   0.000000  -0.000000   0.000000
    32  H   -0.000000   0.000000   0.000000   0.000000  -0.000000  -0.000000
    33  H   -0.000000   0.000000   0.000000   0.000000  -0.000000  -0.000000
              13         14         15         16         17         18
     1  C   -0.003776  -0.049372  -0.003460  -0.003504  -0.104275  -0.011548
     2  C    0.434552  -0.049374  -0.003458  -0.003505  -0.104701  -0.011578
     3  C   -0.076415  -0.010677   0.001566   0.001668   0.427599  -0.048582
     4  C   -0.000252   0.002817  -0.000038  -0.000082  -0.004578   0.000415
     5  C    0.000000  -0.001041  -0.000090   0.000134   0.000146   0.000026
     6  C    0.000336  -0.010506  -0.001348  -0.000391   0.000055  -0.000006
     7  H    0.000002   0.000115   0.000001   0.000001  -0.000023   0.000000
     8  C    0.432092  -0.010502  -0.001345  -0.000396   0.000058  -0.000006
     9  C   -0.102045   0.002817  -0.000038  -0.000082  -0.004546   0.000400
    10  C   -0.065576  -0.001041  -0.000090   0.000134   0.000144   0.000027
    11  H    0.004250   0.000115   0.000001   0.000001  -0.000023   0.000000
    12  N   -0.051158   0.300007  -0.034729  -0.033835   0.003760  -0.000071
    13  N    6.394047   0.300012  -0.034728  -0.033835   0.003742  -0.000072
    14  B    0.300012   3.427848   0.455469   0.447601   0.002119   0.000026
    15  F   -0.034728   0.455469   8.909704  -0.027382   0.000005   0.000000
    16  F   -0.033835   0.447601  -0.027382   8.913533   0.000005  -0.000000
    17  C    0.003742   0.002119   0.000005   0.000005   5.525844   0.275435
    18  C   -0.000072   0.000026   0.000000  -0.000000   0.275435   4.962235
    19  C   -0.000072  -0.000015  -0.000000  -0.000000   0.276371   0.070976
    20  C    0.000003  -0.000000  -0.000000  -0.000000   0.061480   0.341642
    21  H   -0.000073  -0.000005  -0.000000   0.000000  -0.075158   0.456215
    22  C    0.000003   0.000000  -0.000000  -0.000000   0.061616  -0.102519
    23  H   -0.000076   0.000003   0.000000  -0.000000  -0.074646   0.010909
    24  C   -0.000000   0.000000   0.000000   0.000000  -0.152751   0.099613
    25  H   -0.000000  -0.000000   0.000000   0.000000   0.014427  -0.062737
    26  H   -0.000000  -0.000000   0.000000   0.000000   0.014404  -0.002024
    27  H    0.004523   0.000252   0.000001   0.000001   0.006020  -0.000139
    28  H   -0.030173   0.001173   0.000222   0.000955   0.000004   0.000000
    29  H   -0.000012   0.000252   0.000001   0.000001   0.006133  -0.000093
    30  H    0.000142   0.001174   0.000220   0.000958   0.000004   0.000000
    31  N    0.000000   0.000000   0.000000   0.000000   0.000209   0.006676
    32  H   -0.000000  -0.000000  -0.000000  -0.000000  -0.000019  -0.000486
    33  H   -0.000000  -0.000000  -0.000000   0.000000  -0.000019   0.000717
              19         20         21         22         23         24
     1  C   -0.011274   0.001111  -0.001600   0.001106  -0.001608   0.000002
     2  C   -0.011704   0.001132  -0.001679   0.001159  -0.001676   0.000005
     3  C   -0.048418   0.006534  -0.008468   0.006482  -0.008608   0.002039
     4  C    0.000494  -0.000238   0.000355  -0.000205   0.000281  -0.000006
     5  C    0.000019  -0.000007   0.000000  -0.000007   0.000003   0.000001
     6  C   -0.000005   0.000000  -0.000002   0.000000  -0.000002  -0.000000
     7  H    0.000000   0.000000  -0.000000   0.000000  -0.000000   0.000000
     8  C   -0.000006   0.000000  -0.000002   0.000000  -0.000002  -0.000000
     9  C    0.000499  -0.000240   0.000340  -0.000222   0.000293  -0.000009
    10  C    0.000021  -0.000007   0.000001  -0.000008   0.000003   0.000001
    11  H    0.000000   0.000000  -0.000000   0.000000  -0.000000   0.000000
    12  N   -0.000073   0.000003  -0.000074   0.000003  -0.000074  -0.000000
    13  N   -0.000072   0.000003  -0.000073   0.000003  -0.000076  -0.000000
    14  B   -0.000015  -0.000000  -0.000005   0.000000   0.000003   0.000000
    15  F   -0.000000  -0.000000  -0.000000  -0.000000   0.000000   0.000000
    16  F   -0.000000  -0.000000   0.000000  -0.000000  -0.000000   0.000000
    17  C    0.276371   0.061480  -0.075158   0.061616  -0.074646  -0.152751
    18  C    0.070976   0.341642   0.456215  -0.102519   0.010909   0.099613
    19  C    4.960585  -0.102207   0.010865   0.341560   0.456112   0.099585
    20  C   -0.102207   5.213657  -0.056773   0.010705  -0.001759   0.233441
    21  H    0.010865  -0.056773   0.652420  -0.001748  -0.000155   0.013452
    22  C    0.341560   0.010705  -0.001748   5.213918  -0.056969   0.233449
    23  H    0.456112  -0.001759  -0.000155  -0.056969   0.652289   0.013455
    24  C    0.099585   0.233441   0.013452   0.233449   0.013455   5.048614
    25  H   -0.002028   0.457603  -0.011812   0.011840   0.000017  -0.065150
    26  H   -0.062794   0.011839   0.000017   0.457660  -0.011789  -0.065116
    27  H   -0.000216   0.000369  -0.000062   0.000342  -0.000063  -0.000020
    28  H    0.000000   0.000000  -0.000000   0.000000  -0.000000  -0.000000
    29  H   -0.000213   0.000355  -0.000060   0.000313  -0.000060  -0.000022
    30  H    0.000000   0.000000  -0.000000   0.000000  -0.000000  -0.000000
    31  N    0.006692  -0.098789  -0.000111  -0.098888  -0.000111   0.512092
    32  H    0.000725   0.010672   0.000010  -0.025216  -0.000021  -0.002615
    33  H   -0.000489  -0.025123  -0.000021   0.010685   0.000010  -0.002702
              25         26         27         28         29         30
     1  C   -0.000010  -0.000010  -0.000186   0.000061  -0.024399   0.002860
     2  C   -0.000010  -0.000011  -0.024271   0.002861  -0.000175   0.000060
     3  C   -0.000266  -0.000264  -0.018928  -0.000442  -0.018861  -0.000442
     4  C   -0.000004  -0.000003   0.000001  -0.000000   0.446606   0.009290
     5  C   -0.000000  -0.000000   0.000000   0.000000  -0.059029  -0.051684
     6  C    0.000000   0.000000  -0.000000   0.000005   0.009931   0.429211
     7  H   -0.000000  -0.000000  -0.000000  -0.000000  -0.003777  -0.003448
     8  C    0.000000   0.000000   0.009934   0.429210  -0.000000   0.000005
     9  C   -0.000004  -0.000003   0.446619   0.009292   0.000001  -0.000000
    10  C   -0.000000  -0.000000  -0.059058  -0.051688   0.000000   0.000000
    11  H   -0.000000  -0.000000  -0.003777  -0.003448  -0.000000  -0.000000
    12  N   -0.000000  -0.000000  -0.000012   0.000142   0.004526  -0.030172
    13  N   -0.000000  -0.000000   0.004523  -0.030173  -0.000012   0.000142
    14  B   -0.000000  -0.000000   0.000252   0.001173   0.000252   0.001174
    15  F    0.000000   0.000000   0.000001   0.000222   0.000001   0.000220
    16  F    0.000000   0.000000   0.000001   0.000955   0.000001   0.000958
    17  C    0.014427   0.014404   0.006020   0.000004   0.006133   0.000004
    18  C   -0.062737  -0.002024  -0.000139   0.000000  -0.000093   0.000000
    19  C   -0.002028  -0.062794  -0.000216   0.000000  -0.000213   0.000000
    20  C    0.457603   0.011839   0.000369   0.000000   0.000355   0.000000
    21  H   -0.011812   0.000017  -0.000062  -0.000000  -0.000060  -0.000000
    22  C    0.011840   0.457660   0.000342   0.000000   0.000313   0.000000
    23  H    0.000017  -0.011789  -0.000063  -0.000000  -0.000060  -0.000000
    24  C   -0.065150  -0.065116  -0.000020  -0.000000  -0.000022  -0.000000
    25  H    0.628182  -0.000116  -0.000001  -0.000000  -0.000001  -0.000000
    26  H   -0.000116   0.628099  -0.000001  -0.000000  -0.000001  -0.000000
    27  H   -0.000001  -0.000001   0.561896  -0.000096  -0.000001  -0.000000
    28  H   -0.000000  -0.000000  -0.000096   0.557165  -0.000000  -0.000000
    29  H   -0.000001  -0.000001  -0.000001  -0.000000   0.561926  -0.000095
    30  H   -0.000000  -0.000000  -0.000000  -0.000000  -0.000095   0.557156
    31  N   -0.008835  -0.008866  -0.000002   0.000000  -0.000002   0.000000
    32  H   -0.000233   0.004143  -0.000000  -0.000000  -0.000000  -0.000000
    33  H    0.004131  -0.000231  -0.000000  -0.000000  -0.000000  -0.000000
              31         32         33
     1  C   -0.000000  -0.000000  -0.000000
     2  C   -0.000000  -0.000000  -0.000000
     3  C    0.000008   0.000001   0.000001
     4  C    0.000000   0.000000   0.000000
     5  C    0.000000   0.000000   0.000000
     6  C   -0.000000   0.000000   0.000000
     7  H   -0.000000  -0.000000  -0.000000
     8  C   -0.000000   0.000000   0.000000
     9  C    0.000000   0.000000   0.000000
    10  C    0.000000   0.000000   0.000000
    11  H   -0.000000  -0.000000  -0.000000
    12  N    0.000000  -0.000000  -0.000000
    13  N    0.000000  -0.000000  -0.000000
    14  B    0.000000  -0.000000  -0.000000
    15  F    0.000000  -0.000000  -0.000000
    16  F    0.000000  -0.000000   0.000000
    17  C    0.000209  -0.000019  -0.000019
    18  C    0.006676  -0.000486   0.000717
    19  C    0.006692   0.000725  -0.000489
    20  C   -0.098789   0.010672  -0.025123
    21  H   -0.000111   0.000010  -0.000021
    22  C   -0.098888  -0.025216   0.010685
    23  H   -0.000111  -0.000021   0.000010
    24  C    0.512092  -0.002615  -0.002702
    25  H   -0.008835  -0.000233   0.004131
    26  H   -0.008866   0.004143  -0.000231
    27  H   -0.000002  -0.000000  -0.000000
    28  H    0.000000  -0.000000  -0.000000
    29  H   -0.000002  -0.000000  -0.000000
    30  H    0.000000  -0.000000  -0.000000
    31  N    6.023386   0.373075   0.373072
    32  H    0.373075   0.493497  -0.027849
    33  H    0.373072  -0.027849   0.493523
 Mulliken charges:
               1
     1  C    0.035617
     2  C    0.035777
     3  C    0.117706
     4  C   -0.048068
     5  C   -0.096285
     6  C    0.088414
     7  H    0.060875
     8  C    0.088442
     9  C   -0.047943
    10  C   -0.096284
    11  H    0.060885
    12  N   -0.175457
    13  N   -0.175442
    14  B    0.190732
    15  F   -0.260484
    16  F   -0.261980
    17  C   -0.158839
    18  C    0.014548
    19  C    0.015009
    20  C   -0.065403
    21  H    0.024126
    22  C   -0.065060
    23  H    0.024246
    24  C    0.032640
    25  H    0.035006
    26  H    0.035069
    27  H    0.076874
    28  H    0.084757
    29  H    0.076755
    30  H    0.084761
    31  N   -0.079607
    32  H    0.174317
    33  H    0.174297
 Sum of Mulliken charges =  -0.00000
 Mulliken charges with hydrogens summed into heavy atoms:
               1
     1  C    0.035617
     2  C    0.035777
     3  C    0.117706
     4  C    0.028687
     5  C   -0.035410
     6  C    0.173175
     8  C    0.173199
     9  C    0.028931
    10  C   -0.035399
    12  N   -0.175457
    13  N   -0.175442
    14  B    0.190732
    15  F   -0.260484
    16  F   -0.261980
    17  C   -0.158839
    18  C    0.038674
    19  C    0.039255
    20  C   -0.030397
    22  C   -0.029991
    24  C    0.032640
    31  N    0.269007
 Electronic spatial extent (au):  <R**2>=           6138.2756
 Charge=             -0.0000 electrons
 Dipole moment (field-independent basis, Debye):
    X=            -14.6100    Y=             -0.0062    Z=             -0.2453  Tot=             14.6120
 Quadrupole moment (field-independent basis, Debye-Ang):
   XX=            -85.7640   YY=           -104.9533   ZZ=           -118.9667
   XY=             -0.1219   XZ=             -0.9956   YZ=              0.0449
 Traceless Quadrupole moment (field-independent basis, Debye-Ang):
   XX=             17.4640   YY=             -1.7253   ZZ=            -15.7387
   XY=             -0.1219   XZ=             -0.9956   YZ=              0.0449
 Octapole moment (field-independent basis, Debye-Ang**2):
  XXX=           -409.3999  YYY=              0.2412  ZZZ=              1.1584  XYY=             52.4476
  XXY=             -0.0461  XXZ=              0.0233  XZZ=            -41.2395  YZZ=             -0.0012
  YYZ=             -1.1378  XYZ=             -0.2857
 Hexadecapole moment (field-independent basis, Debye-Ang**3):
 XXXX=          -3376.2183 YYYY=          -1796.6608 ZZZZ=           -442.5098 XXXY=             -2.8488
 XXXZ=            -12.1531 YYYX=              0.0623 YYYZ=             -0.3437 ZZZX=             -2.9553
 ZZZY=              0.4596 XXYY=          -1175.1831 XXZZ=           -885.8896 YYZZ=           -480.7418
 XXYZ=              1.0806 YYXZ=             -0.3202 ZZXY=              0.0596
 N-N= 1.586393974666D+03 E-N=-5.428792026278D+03  KE= 9.572098333971D+02
 Unable to Open any file for archive entry.
 1\1\GINC-X1002C3S3B1N0\SP\RwB97XD\def2SVP\C15H12B1F2N3\1008721\10-Oct-
 2025\0\\# wb97xd/def2svp geom=check guess=read SCRF=(SMD, solvent=etha
 nol, NonEq=Read)\\BDP-NH2_ethanol_wb97xd_wb97xd_wb97xd\\0,1\C,0,0.6197
 12,-1.234566,-0.02244\C,0,0.613006,1.231537,-0.024903\C,0,-0.099937,-0
 .003447,-0.016017\C,0,0.163863,-2.559573,-0.041921\C,0,1.317103,-3.383
 808,-0.049379\C,0,2.414782,-2.540312,-0.033873\H,0,1.34719,-4.472276,-
 0.066536\C,0,2.400911,2.547047,-0.037965\C,0,0.149925,2.554037,-0.0462
 56\C,0,1.298662,3.384521,-0.054812\H,0,1.322824,4.473113,-0.073376\N,0
 ,1.998018,-1.240122,-0.017285\N,0,1.991268,1.244621,-0.019664\B,0,2.90
 1976,0.004777,0.03998\F,0,3.657691,0.00792,1.231773\F,0,3.807759,0.006
 231,-1.039343\C,0,-1.552619,-0.006641,-0.005211\C,0,-2.29548,-0.011832
 ,-1.231053\C,0,-2.273178,0.000711,1.234016\C,0,-3.656205,-0.010029,-1.
 230298\H,0,-1.745077,-0.017312,-2.173251\C,0,-3.633493,0.003578,1.2578
 04\H,0,-1.705671,0.00464,2.166017\C,0,-4.367247,-0.001637,0.020467\H,0
 ,-4.227318,-0.014227,-2.160111\H,0,-4.18851,0.009878,2.197343\H,0,-0.8
 95241,2.860321,-0.058435\H,0,3.46112,2.796623,-0.037343\H,0,-0.879604,
 -2.871596,-0.053823\H,0,3.476336,-2.784104,-0.033237\N,0,-5.682188,0.0
 01378,0.033337\H,0,-6.197913,0.007423,0.909946\H,0,-6.215583,-0.002375
 ,-0.832631\\Version=ES64L-G16RevC.01\State=1-A\HF=-966.7877401\RMSD=6.
 919e-09\Dipole=-5.7480119,-0.0024491,-0.0965075\Quadrupole=12.9840582,
 -1.2827055,-11.7013527,-0.0906193,-0.7402336,0.0333651\PG=C01 [X(C15H1
 2B1F2N3)]\\@
 The archive entry for this job was punched.


 MYSTERY IS THE WISDOM OF BLOCKHEADS... HORACE WALPOLE 
 Job cpu time:       0 days  0 hours 24 minutes 29.9 seconds.
 Elapsed time:       0 days  0 hours  0 minutes 48.2 seconds.
 File lengths (MBytes):  RWF=    498 Int=      0 D2E=      0 Chk=     25 Scr=      1
 Normal termination of Gaussian 16 at Fri Oct 10 16:57:02 2025.
