 Entering Gaussian System, Link 0=g16
 Initial command:
 /home/users/sutd/1008721/g16/l1.exe "/home/users/sutd/1008721/scratch/g16/scratch/Gau-3380040.inp" -scrdir="/home/users/sutd/1008721/scratch/g16/scratch/"
 Entering Link 1 = /home/users/sutd/1008721/g16/l1.exe PID=   3380041.
  
 Copyright (c) 1988-2019, Gaussian, Inc.  All Rights Reserved.
  
 This is part of the Gaussian(R) 16 program.  It is based on
 the Gaussian(R) 09 system (copyright 2009, Gaussian, Inc.),
 the Gaussian(R) 03 system (copyright 2003, Gaussian, Inc.),
 the Gaussian(R) 98 system (copyright 1998, Gaussian, Inc.),
 the Gaussian(R) 94 system (copyright 1995, Gaussian, Inc.),
 the Gaussian 92(TM) system (copyright 1992, Gaussian, Inc.),
 the Gaussian 90(TM) system (copyright 1990, Gaussian, Inc.),
 the Gaussian 88(TM) system (copyright 1988, Gaussian, Inc.),
 the Gaussian 86(TM) system (copyright 1986, Carnegie Mellon
 University), and the Gaussian 82(TM) system (copyright 1983,
 Carnegie Mellon University). Gaussian is a federally registered
 trademark of Gaussian, Inc.
  
 This software contains proprietary and confidential information,
 including trade secrets, belonging to Gaussian, Inc.
  
 This software is provided under written license and may be
 used, copied, transmitted, or stored only in accord with that
 written license.
  
 The following legend is applicable only to US Government
 contracts under FAR:
  
                    RESTRICTED RIGHTS LEGEND
  
 Use, reproduction and disclosure by the US Government is
 subject to restrictions as set forth in subparagraphs (a)
 and (c) of the Commercial Computer Software - Restricted
 Rights clause in FAR 52.227-19.
  
 Gaussian, Inc.
 340 Quinnipiac St., Bldg. 40, Wallingford CT 06492
  
  
 ---------------------------------------------------------------
 Warning -- This program may not be used in any manner that
 competes with the business of Gaussian, Inc. or will provide
 assistance to any competitor of Gaussian, Inc.  The licensee
 of this program is prohibited from giving any competitor of
 Gaussian, Inc. access to this program.  By using this program,
 the user acknowledges that Gaussian, Inc. is engaged in the
 business of creating and licensing software in the field of
 computational chemistry and represents and warrants to the
 licensee that it is not a competitor of Gaussian, Inc. and that
 it will not use this program in any manner prohibited above.
 ---------------------------------------------------------------
  

 Cite this work as:
 Gaussian 16, Revision C.01,
 M. J. Frisch, G. W. Trucks, H. B. Schlegel, G. E. Scuseria, 
 M. A. Robb, J. R. Cheeseman, G. Scalmani, V. Barone, 
 G. A. Petersson, H. Nakatsuji, X. Li, M. Caricato, A. V. Marenich, 
 J. Bloino, B. G. Janesko, R. Gomperts, B. Mennucci, H. P. Hratchian, 
 J. V. Ortiz, A. F. Izmaylov, J. L. Sonnenberg, D. Williams-Young, 
 F. Ding, F. Lipparini, F. Egidi, J. Goings, B. Peng, A. Petrone, 
 T. Henderson, D. Ranasinghe, V. G. Zakrzewski, J. Gao, N. Rega, 
 G. Zheng, W. Liang, M. Hada, M. Ehara, K. Toyota, R. Fukuda, 
 J. Hasegawa, M. Ishida, T. Nakajima, Y. Honda, O. Kitao, H. Nakai, 
 T. Vreven, K. Throssell, J. A. Montgomery, Jr., J. E. Peralta, 
 F. Ogliaro, M. J. Bearpark, J. J. Heyd, E. N. Brothers, K. N. Kudin, 
 V. N. Staroverov, T. A. Keith, R. Kobayashi, J. Normand, 
 K. Raghavachari, A. P. Rendell, J. C. Burant, S. S. Iyengar, 
 J. Tomasi, M. Cossi, J. M. Millam, M. Klene, C. Adamo, R. Cammi, 
 J. W. Ochterski, R. L. Martin, K. Morokuma, O. Farkas, 
 J. B. Foresman, and D. J. Fox, Gaussian, Inc., Wallingford CT, 2019.
 
 ******************************************
 Gaussian 16:  ES64L-G16RevC.01  3-Jul-2019
                 8-Oct-2025 
 ******************************************
 %nprocshared=32
 Will use up to   32 processors via shared memory.
 %mem=64GB
 %oldchk=05BDP-NH2_ethanol_m062x_m062x_m062x.chk
 %chk=06BDP-NH2_ethanol_m062x_m062x_m062x.chk
 Copying data from "05BDP-NH2_ethanol_m062x_m062x_m062x.chk" to current chk file "06BDP-NH2_ethanol_m062x_m062x_m062x.chk"
 IOpt=  2 FromEx=T IUOpen= 4 IOptOp= 5 NList=   0 IFRang= 0 IUIn= 4 IUOut= 2.
 ----------------------------------------------------------------------
 # m062x/def2tzvp geom=check guess=read TD=(Read, NStates=3, Root=1) SC
 RF=(SMD, solvent=ethanol, CorrectedLR, NonEq=Save)
 ----------------------------------------------------------------------
 1/29=2,30=1,38=1,172=1/1;
 2/12=2,40=1/2;
 3/5=44,7=101,11=9,14=-4,25=1,30=1,70=9032201,71=1,72=4,74=-55,116=-2/1,2,3,8;
 4/5=1/1;
 5/5=2,38=6,53=4/2;
 8/6=1,10=1,107=1,108=3/1;
 9/8=1,15=1,41=3,42=1,49=3,70=2,73=22/14;
 10/5=4,13=10,28=1,74=20/2;
 6/7=2,8=2,9=2,10=2,22=-1/1;
 99/5=1,9=1/99;
 ---------------------------------
 BDP-NH2_ethanol_m062x_m062x_m062x
 ---------------------------------
 Structure from the checkpoint file:  "06BDP-NH2_ethanol_m062x_m062x_m062x.chk"
 Charge =  0 Multiplicity = 1
 Z-Matrix found in chk file.
 C,0,-0.619573,1.230661,-0.02482
 C,0,-0.619396,-1.23053,-0.027405
 C,0,0.09279,0.000105,-0.015291
 C,0,-0.169924,2.570715,-0.048718
 C,0,-1.321889,3.391935,-0.064267
 C,0,-2.427294,2.546153,-0.048856
 H,0,-1.351805,4.481031,-0.087539
 C,0,-2.4269,-2.546288,-0.053188
 C,0,-0.169528,-2.570484,-0.052793
 C,0,-1.321357,-3.391868,-0.069588
 H,0,-1.351091,-4.480946,-0.09391
 N,0,-2.009013,1.241292,-0.024374
 N,0,-2.008837,-1.241381,-0.027257
 B,0,-2.917092,-0.000194,0.050143
 F,0,-3.655205,-0.001637,1.256926
 F,0,-3.848173,0.000984,-1.01061
 C,0,1.574783,0.000149,-0.003434
 C,0,2.312039,0.006553,-1.221561
 C,0,2.288943,-0.005981,1.228456
 C,0,3.686219,0.007326,-1.223117
 H,0,1.767623,0.011495,-2.167546
 C,0,3.662602,-0.006907,1.255773
 H,0,1.726691,-0.010685,2.163948
 C,0,4.396489,0.000022,0.023255
 H,0,4.254689,0.013226,-2.155167
 H,0,4.214234,-0.012637,2.197961
 H,0,0.871266,-2.890132,-0.063337
 H,0,-3.487985,-2.792314,-0.057209
 H,0,0.870812,2.890536,-0.059656
 H,0,-3.488421,2.791992,-0.053144
 N,0,5.726341,-0.000351,0.036858
 H,0,6.241988,-0.005745,0.915609
 H,0,6.260394,0.004719,-0.83083
 Recover connectivity data from disk.
                          Input orientation:                          
 ---------------------------------------------------------------------
 Center     Atomic      Atomic             Coordinates (Angstroms)
 Number     Number       Type             X           Y           Z
 ---------------------------------------------------------------------
      1          6           0       -0.619573    1.230661   -0.024820
      2          6           0       -0.619396   -1.230530   -0.027405
      3          6           0        0.092790    0.000105   -0.015291
      4          6           0       -0.169924    2.570715   -0.048718
      5          6           0       -1.321889    3.391935   -0.064267
      6          6           0       -2.427294    2.546153   -0.048856
      7          1           0       -1.351805    4.481031   -0.087539
      8          6           0       -2.426900   -2.546288   -0.053188
      9          6           0       -0.169528   -2.570484   -0.052793
     10          6           0       -1.321357   -3.391868   -0.069588
     11          1           0       -1.351091   -4.480946   -0.093910
     12          7           0       -2.009013    1.241292   -0.024374
     13          7           0       -2.008837   -1.241381   -0.027257
     14          5           0       -2.917092   -0.000194    0.050143
     15          9           0       -3.655205   -0.001637    1.256926
     16          9           0       -3.848173    0.000984   -1.010610
     17          6           0        1.574783    0.000149   -0.003434
     18          6           0        2.312039    0.006553   -1.221561
     19          6           0        2.288943   -0.005981    1.228456
     20          6           0        3.686219    0.007326   -1.223117
     21          1           0        1.767623    0.011495   -2.167546
     22          6           0        3.662602   -0.006907    1.255773
     23          1           0        1.726691   -0.010685    2.163948
     24          6           0        4.396489    0.000022    0.023255
     25          1           0        4.254689    0.013226   -2.155167
     26          1           0        4.214234   -0.012637    2.197961
     27          1           0        0.871266   -2.890132   -0.063337
     28          1           0       -3.487985   -2.792314   -0.057209
     29          1           0        0.870812    2.890536   -0.059656
     30          1           0       -3.488421    2.791992   -0.053144
     31          7           0        5.726341   -0.000351    0.036858
     32          1           0        6.241988   -0.005745    0.915609
     33          1           0        6.260394    0.004719   -0.830830
 ---------------------------------------------------------------------
                    Distance matrix (angstroms):
                    1          2          3          4          5
     1  C    0.000000
     2  C    2.461192   0.000000
     3  C    1.421907   1.421907   0.000000
     4  C    1.413683   3.827786   2.584216   0.000000
     5  C    2.272864   4.675686   3.675354   1.414803   0.000000
     6  C    2.235834   4.187158   3.582501   2.257504   1.391943
     7  H    3.332417   5.758643   4.708585   2.246699   1.089755
     8  C    4.187192   2.235834   3.582512   5.592645   6.040171
     9  C    3.827797   1.413684   2.584211   5.141201   6.072768
    10  C    4.675712   2.272864   3.675356   6.072778   6.783805
    11  H    5.758676   3.332417   4.708587   7.150043   7.872991
    12  N    1.389481   2.835657   2.440943   2.269407   2.258096
    13  N    2.835675   1.389483   2.440956   4.232510   4.684110
    14  B    2.607531   2.607517   3.010593   3.763812   3.750240
    15  F    3.518024   3.517928   3.958031   4.524255   4.325072
    16  F    3.592735   3.592815   4.064708   4.588929   4.333154
    17  C    2.515912   2.515863   1.482040   3.107067   4.460787
    18  C    3.394846   3.398484   2.525905   3.756412   5.099566
    19  C    3.399919   3.396343   2.523892   3.783723   5.123970
    20  C    4.633822   4.636845   3.790993   4.777030   6.154645
    21  H    3.431668   3.438123   2.727159   3.846183   5.039468
    22  C    4.637727   4.634577   3.789355   4.799384   6.175741
    23  H    3.440436   3.434265   2.723753   3.893156   5.082972
    24  C    5.165042   5.164874   4.303872   5.240780   6.649254
    25  H    5.457010   5.461777   4.679812   5.527665   6.847318
    26  H    5.463720   5.458891   4.678135   5.562564   6.881674
    27  H    4.382353   2.231063   2.993627   5.559239   6.653893
    28  H    4.940968   3.266322   4.541069   6.306479   6.552630
    29  H    2.231064   4.382345   2.993640   1.088823   2.249302
    30  H    3.266320   4.940916   4.541050   3.325869   2.248092
    31  N    6.464505   6.464197   5.633792   6.433012   7.822747
    32  H    7.035206   7.033347   6.219264   6.977155   8.349648
    33  H    7.034666   7.035826   6.221291   6.967426   8.339776
                    6          7          8          9         10
     6  C    0.000000
     7  H    2.214029   0.000000
     8  C    5.092443   7.109165   0.000000
     9  C    5.592629   7.150024   2.257502   0.000000
    10  C    6.040167   7.872978   1.391941   1.414802   0.000000
    11  H    7.109175   8.961979   2.214029   2.246697   1.089755
    12  N    1.370482   3.306330   3.810672   4.232511   4.684131
    13  N    3.810641   5.760323   1.370486   2.269411   2.258100
    14  B    2.594915   4.748732   2.594910   3.763787   3.750221
    15  F    3.115135   5.216086   3.114543   4.523747   4.324367
    16  F    3.069487   5.211020   3.070060   4.589367   4.333794
    17  C    4.743503   5.352597   4.743446   3.106962   4.460693
    18  C    5.503279   5.893277   5.508143   3.763683   5.106650
    19  C    5.512514   5.926227   5.507717   3.776553   5.116973
    20  C    6.723063   6.832661   6.727548   4.783466   6.161247
    21  H    5.339538   5.833868   5.348531   3.858931   5.052337
    22  C    6.731048   6.862241   6.726356   4.792650   6.168824
    23  H    5.356259   5.892524   5.347644   3.881000   5.070668
    24  C    7.283680   7.289348   7.283418   5.240400   6.648857
    25  H    7.449910   7.461176   7.457416   5.537981   6.858323
    26  H    7.463611   7.509817   7.455986   5.552103   6.870498
    27  H    6.358766   7.699135   3.316056   1.088824   2.249305
    28  H    5.442827   7.580616   1.089241   3.325866   2.248087
    29  H    3.316055   2.733218   6.358774   5.559235   6.653894
    30  H    1.089241   2.723814   5.442799   6.306441   6.552600
    31  N    8.542470   8.378449   8.541969   6.432332   7.822005
    32  H    9.088390   8.877114   9.085293   6.973036   8.345096
    33  H    9.085499   8.862021   9.087433   6.970001   8.342616
                   11         12         13         14         15
    11  H    0.000000
    12  N    5.760356   0.000000
    13  N    3.306335   2.482675   0.000000
    14  B    4.748710   1.539951   1.539956   0.000000
    15  F    5.215161   2.428281   2.428295   1.414616   0.000000
    16  F    5.211857   2.427660   2.427676   1.411421   2.275734
    17  C    5.352489   3.792686   3.792664   4.492195   5.379710
    18  C    5.901505   4.650734   4.653350   5.381551   6.461499
    19  C    5.918092   4.647332   4.644776   5.337720   5.944218
    20  C    6.840628   5.949397   5.951724   6.724951   7.749013
    21  H    5.848792   4.513155   4.517985   5.183130   6.413598
    22  C    6.853888   5.946763   5.944351   6.689242   7.317809
    23  H    5.878256   4.506849   4.502240   5.102255   5.457799
    24  C    7.288860   6.524835   6.524709   7.313630   8.145657
    25  H    7.474699   6.729219   6.733038   7.503200   8.614466
    26  H    7.496086   6.726062   6.722203   7.447757   7.925512
    27  H    2.733221   5.036486   3.318836   4.766159   5.529506
    28  H    2.723810   4.296326   2.143401   2.851908   3.089141
    29  H    7.699141   3.318832   5.036484   4.766193   5.530179
    30  H    7.580598   2.143396   4.296270   2.851909   3.090059
    31  N    8.377522   7.834611   7.834363   8.643443   9.460548
    32  H    8.871381   8.397481   8.395946   9.199881   9.903077
    33  H    8.865605   8.400153   8.401112   9.219674  10.133009
                   16         17         18         19         20
    16  F    0.000000
    17  C    5.515692   0.000000
    18  C    6.163825   1.423875   0.000000
    19  C    6.532814   1.423943   2.450158   0.000000
    20  C    7.537391   2.438409   1.374181   2.821838   0.000000
    21  H    5.733740   2.172716   1.091467   3.435827   2.138451
    22  C    7.845272   2.438163   2.821593   1.373931   2.479043
    23  H    6.415377   2.172726   3.435782   1.091464   3.913091
    24  C    8.309232   2.821832   2.427868   2.427817   1.434566
    25  H    8.183308   3.436862   2.155355   3.913238   1.091746
    26  H    8.677414   3.437005   3.913035   2.155627   3.461643
    27  H    5.615067   2.975273   3.436291   3.463649   4.202893
    28  H    2.973419   5.782072   6.544437   6.541367   7.788872
    29  H    5.614503   2.975411   3.427027   3.472771   4.194408
    30  H    2.972522   5.782118   6.539817   6.545921   7.784514
    31  N    9.631641   4.151754   3.638836   3.638082   2.397852
    32  H   10.272376   4.756835   4.473494   3.965405   3.332608
    33  H   10.110166   4.758104   3.967642   4.473611   2.603896
                   21         22         23         24         25
    21  H    0.000000
    22  C    3.912850   0.000000
    23  H    4.331744   2.138352   0.000000
    24  C    3.422087   1.434482   3.422061   0.000000
    25  H    2.487097   3.462006   5.004608   2.183072   0.000000
    26  H    5.004412   1.091810   2.487776   2.182366   4.353393
    27  H    3.694671   4.224286   3.739487   4.559351   4.924712
    28  H    6.319516   7.785455   6.313782   8.364720   8.498322
    29  H    3.679178   4.233157   3.754201   4.559862   4.911283
    30  H    6.310932   7.790008   6.322016   8.364971   8.490924
    31  N    4.531113   2.396834   4.530101   1.329922   2.640250
    32  H    5.433791   2.601720   4.684686   2.049926   3.657784
    33  H    4.687414   3.332052   5.433544   2.050274   2.403496
                   26         27         28         29         30
    26  H    0.000000
    27  H    4.956701   0.000000
    28  H    8.493325   4.360353   0.000000
    29  H    4.970284   5.780669   7.161976   0.000000
    30  H    8.500842   7.161949   5.584307   4.360352   0.000000
    31  N    2.637610   5.650896   9.628484   5.651788   9.628973
    32  H    2.399221   6.174357  10.167778   6.179734  10.170874
    33  H    3.655222   6.165380  10.171174   6.162000  10.169222
                   31         32         33
    31  N    0.000000
    32  H    1.018884   0.000000
    33  H    1.018882   1.746567   0.000000
 Stoichiometry    C15H12BF2N3
 Framework group  C1[X(C15H12BF2N3)]
 Deg. of freedom    93
 Full point group                 C1      NOp   1
 Largest Abelian subgroup         C1      NOp   1
 Largest concise Abelian subgroup C1      NOp   1
                         Standard orientation:                         
 ---------------------------------------------------------------------
 Center     Atomic      Atomic             Coordinates (Angstroms)
 Number     Number       Type             X           Y           Z
 ---------------------------------------------------------------------
      1          6           0       -0.619573    1.230661   -0.024820
      2          6           0       -0.619396   -1.230530   -0.027405
      3          6           0        0.092790    0.000105   -0.015291
      4          6           0       -0.169924    2.570715   -0.048718
      5          6           0       -1.321889    3.391935   -0.064267
      6          6           0       -2.427294    2.546153   -0.048856
      7          1           0       -1.351805    4.481031   -0.087539
      8          6           0       -2.426900   -2.546288   -0.053188
      9          6           0       -0.169528   -2.570484   -0.052793
     10          6           0       -1.321357   -3.391868   -0.069588
     11          1           0       -1.351091   -4.480946   -0.093910
     12          7           0       -2.009013    1.241292   -0.024374
     13          7           0       -2.008837   -1.241381   -0.027257
     14          5           0       -2.917092   -0.000194    0.050143
     15          9           0       -3.655205   -0.001637    1.256926
     16          9           0       -3.848173    0.000984   -1.010610
     17          6           0        1.574783    0.000149   -0.003434
     18          6           0        2.312039    0.006553   -1.221561
     19          6           0        2.288943   -0.005981    1.228456
     20          6           0        3.686219    0.007326   -1.223117
     21          1           0        1.767623    0.011495   -2.167546
     22          6           0        3.662602   -0.006907    1.255773
     23          1           0        1.726691   -0.010685    2.163948
     24          6           0        4.396489    0.000022    0.023255
     25          1           0        4.254689    0.013226   -2.155167
     26          1           0        4.214234   -0.012637    2.197961
     27          1           0        0.871266   -2.890132   -0.063337
     28          1           0       -3.487985   -2.792314   -0.057209
     29          1           0        0.870812    2.890536   -0.059656
     30          1           0       -3.488421    2.791992   -0.053144
     31          7           0        5.726341   -0.000351    0.036858
     32          1           0        6.241988   -0.005745    0.915609
     33          1           0        6.260394    0.004719   -0.830830
 ---------------------------------------------------------------------
 Rotational constants (GHZ):           0.5703769           0.2106994           0.1685602
 Standard basis: def2TZVP (5D, 7F)
 There are   828 symmetry adapted cartesian basis functions of A   symmetry.
 There are   723 symmetry adapted basis functions of A   symmetry.
   723 basis functions,  1167 primitive gaussians,   828 cartesian basis functions
    73 alpha electrons       73 beta electrons
       nuclear repulsion energy      1580.2731707943 Hartrees.
 NAtoms=   33 NActive=   33 NUniq=   33 SFac= 1.00D+00 NAtFMM=   60 NAOKFM=F Big=F
 Integral buffers will be    131072 words long.
 Regular integral format.
 Two-electron integral symmetry is turned on.
 ------------------------------------------------------------------------------
 Polarizable Continuum Model (PCM)
 =================================
 Model                : PCM.
 Atomic radii         : SMD-Coulomb.
 Polarization charges : Total charges.
 Charge compensation  : None.
 Solution method      : On-the-fly selection.
 Cavity type          : VdW (van der Waals Surface) (Alpha=1.000).
 Cavity algorithm     : GePol (No added spheres)
                        Default sphere list used, NSphG=   33.
                        Lebedev-Laikov grids with approx.  5.0 points / Ang**2.
                        Smoothing algorithm: York/Karplus (Gamma=1.0000).
                        Polarization charges: spherical gaussians, with
                                              point-specific exponents (IZeta= 3).
                        Self-potential: point-specific (ISelfS= 7).
                        Self-field    : sphere-specific E.n sum rule (ISelfD= 2).
 1st derivatives      : Analytical E(r).r(x)/FMM algorithm (CHGder, D1EAlg=3).
                        Cavity 1st derivative terms included.
 Solvent              : Ethanol, Eps=  24.852000 Eps(inf)=   1.852593
 ------------------------------------------------------------------------------
 ------------------------------------------------------------------------------
 Atomic radii for non-electrostatic terms: SMD-CDS.
 ------------------------------------------------------------------------------
 Nuclear repulsion after PCM non-electrostatic terms =     1580.2725621907 Hartrees.
 One-electron integrals computed using PRISM.
   1 Symmetry operations used in ECPInt.
 ECPInt:  NShTT=   39060 NPrTT=  121776 LenC2=   34331 LenP2D=   76526.
 LDataN:  DoStor=T MaxTD1= 6 Len=  172
 NBasis=   723 RedAO= T EigKep=  7.56D-06  NBF=   723
 NBsUse=   723 1.00D-06 EigRej= -1.00D+00 NBFU=   723
 Initial guess from the checkpoint file:  "06BDP-NH2_ethanol_m062x_m062x_m062x.chk"
 B after Tr=    -0.000000   -0.000000   -0.000000
         Rot=    1.000000    0.000000    0.000000    0.000000 Ang=   0.00 deg.
 Requested convergence on RMS density matrix=1.00D-08 within 128 cycles.
 Requested convergence on MAX density matrix=1.00D-06.
 Requested convergence on             energy=1.00D-06.
 No special actions if energy rises.
 Inv3:  Mode=1 IEnd=    20342448.
 Iteration    1 A*A^-1 deviation from unit magnitude is 4.88D-15 for   2603.
 Iteration    1 A*A^-1 deviation from orthogonality  is 2.08D-15 for   2320     71.
 Iteration    1 A^-1*A deviation from unit magnitude is 5.11D-15 for   2603.
 Iteration    1 A^-1*A deviation from orthogonality  is 1.61D-13 for   1647   1582.
 Error on total polarization charges =  0.04870
 SCF Done:  E(RM062X) =  -967.813609495     A.U. after    1 cycles
            NFock=  1  Conv=0.20D-08     -V/T= 2.0055
 SMD-CDS (non-electrostatic) energy       (kcal/mol) =      -0.38
 (included in total energy above)
 DoSCS=F DFT=T ScalE2(SS,OS)=  1.000000  1.000000
 ExpMin= 6.06D-02 ExpMax= 3.55D+04 ExpMxC= 1.21D+03 IAcc=3 IRadAn=         5 AccDes= 0.00D+00
 HarFok:  IExCor=  205 AccDes= 0.00D+00 IRadAn=         5 IDoV=-2 UseB2=F ITyADJ=14
 ICtDFT= 12500011 ScaDFX=  1.000000  1.000000  1.000000  1.000000
 GSVD:  LWork=        -609 too small for GESVD, short by        2520 words or        2520 for optimal perf.
 Range of M.O.s used for correlation:    22   723
 NBasis=   723 NAE=    73 NBE=    73 NFC=    21 NFV=     0
 NROrb=    702 NOA=    52 NOB=    52 NVA=   650 NVB=   650

 **** Warning!!: The largest alpha MO coefficient is  0.75579670D+02

 NEqPCM:  Using equilibrium solvation (IEInf=0, Eps=  24.8520, EpsInf=   1.8526)
 Orbital symmetries:
       Occupied  (A) (A) (A) (A) (A) (A) (A) (A) (A) (A) (A) (A)
                 (A) (A) (A) (A) (A) (A) (A) (A) (A) (A) (A) (A)
                 (A) (A) (A) (A) (A) (A) (A) (A) (A) (A) (A) (A)
                 (A) (A) (A) (A) (A) (A) (A) (A) (A) (A) (A) (A)
                 (A) (A) (A) (A) (A) (A) (A) (A) (A) (A) (A) (A)
                 (A) (A) (A) (A) (A) (A) (A) (A) (A) (A) (A) (A)
                 (A)
       Virtual   (A) (A) (A) (A) (A) (A) (A) (A) (A) (A) (A) (A)
                 (A) (A) (A) (A) (A) (A) (A) (A) (A) (A) (A) (A)
                 (A) (A) (A) (A) (A) (A) (A) (A) (A) (A) (A) (A)
                 (A) (A) (A) (A) (A) (A) (A) (A) (A) (A) (A) (A)
                 (A) (A) (A) (A) (A) (A) (A) (A) (A) (A) (A) (A)
                 (A) (A) (A) (A) (A) (A) (A) (A) (A) (A) (A) (A)
                 (A) (A) (A) (A) (A) (A) (A) (A) (A) (A) (A) (A)
                 (A) (A) (A) (A) (A) (A) (A) (A) (A) (A) (A) (A)
                 (A) (A) (A) (A) (A) (A) (A) (A) (A) (A) (A) (A)
                 (A) (A) (A) (A) (A) (A) (A) (A) (A) (A) (A) (A)
                 (A) (A) (A) (A) (A) (A) (A) (A) (A) (A) (A) (A)
                 (A) (A) (A) (A) (A) (A) (A) (A) (A) (A) (A) (A)
                 (A) (A) (A) (A) (A) (A) (A) (A) (A) (A) (A) (A)
                 (A) (A) (A) (A) (A) (A) (A) (A) (A) (A) (A) (A)
                 (A) (A) (A) (A) (A) (A) (A) (A) (A) (A) (A) (A)
                 (A) (A) (A) (A) (A) (A) (A) (A) (A) (A) (A) (A)
                 (A) (A) (A) (A) (A) (A) (A) (A) (A) (A) (A) (A)
                 (A) (A) (A) (A) (A) (A) (A) (A) (A) (A) (A) (A)
                 (A) (A) (A) (A) (A) (A) (A) (A) (A) (A) (A) (A)
                 (A) (A) (A) (A) (A) (A) (A) (A) (A) (A) (A) (A)
                 (A) (A) (A) (A) (A) (A) (A) (A) (A) (A) (A) (A)
                 (A) (A) (A) (A) (A) (A) (A) (A) (A) (A) (A) (A)
                 (A) (A) (A) (A) (A) (A) (A) (A) (A) (A) (A) (A)
                 (A) (A) (A) (A) (A) (A) (A) (A) (A) (A) (A) (A)
                 (A) (A) (A) (A) (A) (A) (A) (A) (A) (A) (A) (A)
                 (A) (A) (A) (A) (A) (A) (A) (A) (A) (A) (A) (A)
                 (A) (A) (A) (A) (A) (A) (A) (A) (A) (A) (A) (A)
                 (A) (A) (A) (A) (A) (A) (A) (A) (A) (A) (A) (A)
                 (A) (A) (A) (A) (A) (A) (A) (A) (A) (A) (A) (A)
                 (A) (A) (A) (A) (A) (A) (A) (A) (A) (A) (A) (A)
                 (A) (A) (A) (A) (A) (A) (A) (A) (A) (A) (A) (A)
                 (A) (A) (A) (A) (A) (A) (A) (A) (A) (A) (A) (A)
                 (A) (A) (A) (A) (A) (A) (A) (A) (A) (A) (A) (A)
                 (A) (A) (A) (A) (A) (A) (A) (A) (A) (A) (A) (A)
                 (A) (A) (A) (A) (A) (A) (A) (A) (A) (A) (A) (A)
                 (A) (A) (A) (A) (A) (A) (A) (A) (A) (A) (A) (A)
                 (A) (A) (A) (A) (A) (A) (A) (A) (A) (A) (A) (A)
                 (A) (A) (A) (A) (A) (A) (A) (A) (A) (A) (A) (A)
                 (A) (A) (A) (A) (A) (A) (A) (A) (A) (A) (A) (A)
                 (A) (A) (A) (A) (A) (A) (A) (A) (A) (A) (A) (A)
                 (A) (A) (A) (A) (A) (A) (A) (A) (A) (A) (A) (A)
                 (A) (A) (A) (A) (A) (A) (A) (A) (A) (A) (A) (A)
                 (A) (A) (A) (A) (A) (A) (A) (A) (A) (A) (A) (A)
                 (A) (A) (A) (A) (A) (A) (A) (A) (A) (A) (A) (A)
                 (A) (A) (A) (A) (A) (A) (A) (A) (A) (A) (A) (A)
                 (A) (A) (A) (A) (A) (A) (A) (A) (A) (A) (A) (A)
                 (A) (A) (A) (A) (A) (A) (A) (A) (A) (A) (A) (A)
                 (A) (A) (A) (A) (A) (A) (A) (A) (A) (A) (A) (A)
                 (A) (A) (A) (A) (A) (A) (A) (A) (A) (A) (A) (A)
                 (A) (A) (A) (A) (A) (A) (A) (A) (A) (A) (A) (A)
                 (A) (A) (A) (A) (A) (A) (A) (A) (A) (A) (A) (A)
                 (A) (A) (A) (A) (A) (A) (A) (A) (A) (A) (A) (A)
                 (A) (A) (A) (A) (A) (A) (A) (A) (A) (A) (A) (A)
                 (A) (A) (A) (A) (A) (A) (A) (A) (A) (A) (A) (A)
                 (A) (A)
 Generating guess from checkpoint file densities.
 Convergence on wavefunction:    0.000001000000000
 Iteration     1 Dimension     6 NMult     0 NNew      6
 CISAX will form     6 AO SS matrices at one time.
 Iteration     2 Dimension    12 NMult     6 NNew      6
 Iteration     3 Dimension    18 NMult    12 NNew      6
 Iteration     4 Dimension    24 NMult    18 NNew      6
 Iteration     5 Dimension    30 NMult    24 NNew      6
 Iteration     6 Dimension    36 NMult    30 NNew      6
 Iteration     7 Dimension    42 NMult    36 NNew      6
 Iteration     8 Dimension    46 NMult    42 NNew      4
 Iteration     9 Dimension    50 NMult    46 NNew      4
 Iteration    10 Dimension    52 NMult    50 NNew      2
 Iteration    11 Dimension    54 NMult    52 NNew      2
 Iteration    12 Dimension    56 NMult    54 NNew      2
 Iteration    13 Dimension    58 NMult    56 NNew      2
 Iteration    14 Dimension    60 NMult    58 NNew      2
 PCM Corrected Linear-Response:
 The state of interest is root number   1
 Excitation energy =    2.2393 eV, Total energy =  -967.731317581    
 Recompute the excitation energies using the linear response reaction field.
 Convergence on wavefunction:    0.000001000000000
 Iteration     1 Dimension     6 NMult     0 NNew      6
 Iteration     2 Dimension    12 NMult     6 NNew      6
 Iteration     3 Dimension    18 NMult    12 NNew      6
 Iteration     4 Dimension    24 NMult    18 NNew      6
 Iteration     5 Dimension    30 NMult    24 NNew      6
 Iteration     6 Dimension    36 NMult    30 NNew      6
 Iteration     7 Dimension    42 NMult    36 NNew      6
 Iteration     8 Dimension    46 NMult    42 NNew      4
 Iteration     9 Dimension    50 NMult    46 NNew      4
 Iteration    10 Dimension    52 NMult    50 NNew      2
 Iteration    11 Dimension    54 NMult    52 NNew      2
 Iteration    12 Dimension    56 NMult    54 NNew      2
 ***********************************************************************
 Excited states from <AA,BB:AA,BB> singles matrix:
 ***********************************************************************
 
 Ground to excited state transition densities written to RWF  633
 Ground to excited state transition electric dipole moments (Au):
       state          X           Y           Z        Dip. S.      Osc.
         1         0.0196     -0.0510      0.0002      0.0030      0.0002
         2         0.0000      3.5988      0.0032     12.9516      0.8118
         3         0.0001     -0.8789     -0.0007      0.7725      0.0695
 Ground to excited state transition velocity dipole moments (Au):
       state          X           Y           Z        Dip. S.      Osc.
         1        -0.0017      0.0043     -0.0000      0.0000      0.0002
         2        -0.0000     -0.3497     -0.0003      0.1223      0.8671
         3        -0.0000      0.1234      0.0001      0.0152      0.0752
 Ground to excited state transition magnetic dipole moments (Au):
       state          X           Y           Z
         1        -0.0857      0.0000      0.0029
         2        -0.0136      0.0001     -0.4562
         3        -0.0005      0.0013     -1.4965
 Ground to excited state transition velocity quadrupole moments (Au):
       state          XX          YY          ZZ          XY          XZ          YZ
         1        -0.0088      0.0041     -0.0003     -0.0132     -0.0000     -0.0039
         2        -0.0003      0.0001      0.0001      1.0727      0.0009      0.0363
         3        -0.0001      0.0001     -0.0000      0.2106      0.0003     -0.0095
 <0|del|b> * <b|rxdel|0> + <0|del|b> * <b|delr+rdel|0>
 Rotatory Strengths (R) in cgs (10**-40 erg-esu-cm/Gauss)
       state          XX          YY          ZZ    R(velocity)    E-M Angle
         1         0.0024      0.6383      0.5844      0.4084       68.98
         2         0.2294      1.7939     -1.3251      0.2327       90.00
         3        -0.0369     -0.4557      0.5189      0.0087       90.00
 1/2[<0|r|b>*<b|rxdel|0> + (<0|rxdel|b>*<b|r|0>)*]
 Rotatory Strengths (R) in cgs (10**-40 erg-esu-cm/Gauss)
       state          XX          YY          ZZ     R(length)
         1         1.1887      0.0016     -0.0004      0.3966
         2         0.0000     -0.3604      1.0345      0.2247
         3         0.0000      0.7935     -0.7622      0.0104
  1/2[<0|del|b>*<b|r|0> + (<0|r|b>*<b|del|0>)*] (Au)
       state          X           Y           Z        Dip. S.   Osc.(frdel)
         1        -0.0000     -0.0002     -0.0000      0.0003      0.0002
         2        -0.0000     -1.2585     -0.0000      1.2585      0.8390
         3        -0.0000     -0.1085     -0.0000      0.1085      0.0723

 Excitation energies and oscillator strengths:
 
 Excited State   1:      Singlet-A      2.2388 eV  553.80 nm  f=0.0002  <S**2>=0.000
      67 -> 74        -0.10859
      73 -> 74         0.69589
 This state for optimization and/or second-order correction.
 Total Energy, E(TD-HF/TD-DFT) =  -967.731335654    
 Copying the excited state density for this state as the 1-particle RhoCI density.
 
 Excited State   2:      Singlet-A      2.5585 eV  484.59 nm  f=0.8118  <S**2>=0.000
      72 -> 74         0.70071
 
 Excited State   3:      Singlet-A      3.6725 eV  337.60 nm  f=0.0695  <S**2>=0.000
      70 -> 74         0.31133
      71 -> 74         0.62962
 SavETr:  write IOETrn=   770 NScale= 10 NData=  16 NLR=1 NState=    3 LETran=      64.
 NEqPCM:  Using equilibrium solvation (IEInf=0, Eps=  24.8520, EpsInf=   1.8526)
          Differentiating once with respect to electric field.
                with respect to dipole field.
          Electric field/nuclear overlap derivatives assumed to be zero.
          There are     1 degrees of freedom in the 1st order CPHF.  IDoFFX=0 NUNeed=     1.
 LinEq1:  Iter=  0 NonCon=     1 RMS=3.47D-03 Max=1.68D-01 NDo=     1
 AX will form     1 AO Fock derivatives at one time.
 LinEq1:  Iter=  1 NonCon=     1 RMS=1.27D-03 Max=1.50D-01 NDo=     1
 LinEq1:  Iter=  2 NonCon=     1 RMS=9.29D-04 Max=1.20D-01 NDo=     1
 LinEq1:  Iter=  3 NonCon=     1 RMS=3.69D-04 Max=3.52D-02 NDo=     1
 LinEq1:  Iter=  4 NonCon=     1 RMS=1.67D-04 Max=1.18D-02 NDo=     1
 LinEq1:  Iter=  5 NonCon=     1 RMS=7.32D-05 Max=4.38D-03 NDo=     1
 LinEq1:  Iter=  6 NonCon=     1 RMS=2.90D-05 Max=1.71D-03 NDo=     1
 LinEq1:  Iter=  7 NonCon=     1 RMS=1.31D-05 Max=8.09D-04 NDo=     1
 LinEq1:  Iter=  8 NonCon=     1 RMS=5.67D-06 Max=4.17D-04 NDo=     1
 LinEq1:  Iter=  9 NonCon=     1 RMS=2.73D-06 Max=1.81D-04 NDo=     1
 LinEq1:  Iter= 10 NonCon=     1 RMS=1.38D-06 Max=5.69D-05 NDo=     1
 LinEq1:  Iter= 11 NonCon=     1 RMS=5.04D-07 Max=2.90D-05 NDo=     1
 LinEq1:  Iter= 12 NonCon=     1 RMS=2.36D-07 Max=1.38D-05 NDo=     1
 LinEq1:  Iter= 13 NonCon=     1 RMS=1.04D-07 Max=8.73D-06 NDo=     1
 LinEq1:  Iter= 14 NonCon=     1 RMS=5.34D-08 Max=5.14D-06 NDo=     1
 LinEq1:  Iter= 15 NonCon=     1 RMS=2.25D-08 Max=2.01D-06 NDo=     1
 LinEq1:  Iter= 16 NonCon=     1 RMS=9.22D-09 Max=6.75D-07 NDo=     1
 LinEq1:  Iter= 17 NonCon=     1 RMS=4.44D-09 Max=2.62D-07 NDo=     1
 LinEq1:  Iter= 18 NonCon=     1 RMS=1.38D-09 Max=8.55D-08 NDo=     1
 LinEq1:  Iter= 19 NonCon=     1 RMS=4.43D-10 Max=2.00D-08 NDo=     1
 LinEq1:  Iter= 20 NonCon=     1 RMS=2.52D-10 Max=1.41D-08 NDo=     1
 LinEq1:  Iter= 21 NonCon=     1 RMS=7.49D-11 Max=3.58D-09 NDo=     1
 LinEq1:  Iter= 22 NonCon=     1 RMS=2.71D-11 Max=1.61D-09 NDo=     1
 LinEq1:  Iter= 23 NonCon=     1 RMS=1.38D-11 Max=1.12D-09 NDo=     1
 LinEq1:  Iter= 24 NonCon=     0 RMS=4.86D-12 Max=4.78D-10 NDo=     1
 Linear equations converged to 1.000D-10 1.000D-09 after    24 iterations.
 PCM Corrected Linear-Response - Equilibrium solvation:
 Corrected transition energy               =    1.1888          eV
 Total energy after correction             = -967.769923024     a.u.
 NEqPCM:  Using non-equilibrium solvation (IEInf=1, Eps=  24.8520, EpsInf=   1.8526)
 Inv3:  Mode=1 IEnd=    20342448.
 Iteration    1 A*A^-1 deviation from unit magnitude is 7.55D-15 for   2600.
 Iteration    1 A*A^-1 deviation from orthogonality  is 2.46D-15 for   1595   1135.
 Iteration    1 A^-1*A deviation from unit magnitude is 7.77D-15 for   2600.
 Iteration    1 A^-1*A deviation from orthogonality  is 2.75D-15 for   2303    883.
 End of Minotr F.D. properties file   721 does not exist.
 End of Minotr F.D. properties file   722 does not exist.
 End of Minotr F.D. properties file   788 does not exist.

 **********************************************************************

            Population analysis using the CI Density.

 **********************************************************************

 Orbital symmetries:
       Occupied  (A) (A) (A) (A) (A) (A) (A) (A) (A) (A) (A) (A)
                 (A) (A) (A) (A) (A) (A) (A) (A) (A) (A) (A) (A)
                 (A) (A) (A) (A) (A) (A) (A) (A) (A) (A) (A) (A)
                 (A) (A) (A) (A) (A) (A) (A) (A) (A) (A) (A) (A)
                 (A) (A) (A) (A) (A) (A) (A) (A) (A) (A) (A) (A)
                 (A) (A) (A) (A) (A) (A) (A) (A) (A) (A) (A) (A)
                 (A)
       Virtual   (A) (A) (A) (A) (A) (A) (A) (A) (A) (A) (A) (A)
                 (A) (A) (A) (A) (A) (A) (A) (A) (A) (A) (A) (A)
                 (A) (A) (A) (A) (A) (A) (A) (A) (A) (A) (A) (A)
                 (A) (A) (A) (A) (A) (A) (A) (A) (A) (A) (A) (A)
                 (A) (A) (A) (A) (A) (A) (A) (A) (A) (A) (A) (A)
                 (A) (A) (A) (A) (A) (A) (A) (A) (A) (A) (A) (A)
                 (A) (A) (A) (A) (A) (A) (A) (A) (A) (A) (A) (A)
                 (A) (A) (A) (A) (A) (A) (A) (A) (A) (A) (A) (A)
                 (A) (A) (A) (A) (A) (A) (A) (A) (A) (A) (A) (A)
                 (A) (A) (A) (A) (A) (A) (A) (A) (A) (A) (A) (A)
                 (A) (A) (A) (A) (A) (A) (A) (A) (A) (A) (A) (A)
                 (A) (A) (A) (A) (A) (A) (A) (A) (A) (A) (A) (A)
                 (A) (A) (A) (A) (A) (A) (A) (A) (A) (A) (A) (A)
                 (A) (A) (A) (A) (A) (A) (A) (A) (A) (A) (A) (A)
                 (A) (A) (A) (A) (A) (A) (A) (A) (A) (A) (A) (A)
                 (A) (A) (A) (A) (A) (A) (A) (A) (A) (A) (A) (A)
                 (A) (A) (A) (A) (A) (A) (A) (A) (A) (A) (A) (A)
                 (A) (A) (A) (A) (A) (A) (A) (A) (A) (A) (A) (A)
                 (A) (A) (A) (A) (A) (A) (A) (A) (A) (A) (A) (A)
                 (A) (A) (A) (A) (A) (A) (A) (A) (A) (A) (A) (A)
                 (A) (A) (A) (A) (A) (A) (A) (A) (A) (A) (A) (A)
                 (A) (A) (A) (A) (A) (A) (A) (A) (A) (A) (A) (A)
                 (A) (A) (A) (A) (A) (A) (A) (A) (A) (A) (A) (A)
                 (A) (A) (A) (A) (A) (A) (A) (A) (A) (A) (A) (A)
                 (A) (A) (A) (A) (A) (A) (A) (A) (A) (A) (A) (A)
                 (A) (A) (A) (A) (A) (A) (A) (A) (A) (A) (A) (A)
                 (A) (A) (A) (A) (A) (A) (A) (A) (A) (A) (A) (A)
                 (A) (A) (A) (A) (A) (A) (A) (A) (A) (A) (A) (A)
                 (A) (A) (A) (A) (A) (A) (A) (A) (A) (A) (A) (A)
                 (A) (A) (A) (A) (A) (A) (A) (A) (A) (A) (A) (A)
                 (A) (A) (A) (A) (A) (A) (A) (A) (A) (A) (A) (A)
                 (A) (A) (A) (A) (A) (A) (A) (A) (A) (A) (A) (A)
                 (A) (A) (A) (A) (A) (A) (A) (A) (A) (A) (A) (A)
                 (A) (A) (A) (A) (A) (A) (A) (A) (A) (A) (A) (A)
                 (A) (A) (A) (A) (A) (A) (A) (A) (A) (A) (A) (A)
                 (A) (A) (A) (A) (A) (A) (A) (A) (A) (A) (A) (A)
                 (A) (A) (A) (A) (A) (A) (A) (A) (A) (A) (A) (A)
                 (A) (A) (A) (A) (A) (A) (A) (A) (A) (A) (A) (A)
                 (A) (A) (A) (A) (A) (A) (A) (A) (A) (A) (A) (A)
                 (A) (A) (A) (A) (A) (A) (A) (A) (A) (A) (A) (A)
                 (A) (A) (A) (A) (A) (A) (A) (A) (A) (A) (A) (A)
                 (A) (A) (A) (A) (A) (A) (A) (A) (A) (A) (A) (A)
                 (A) (A) (A) (A) (A) (A) (A) (A) (A) (A) (A) (A)
                 (A) (A) (A) (A) (A) (A) (A) (A) (A) (A) (A) (A)
                 (A) (A) (A) (A) (A) (A) (A) (A) (A) (A) (A) (A)
                 (A) (A) (A) (A) (A) (A) (A) (A) (A) (A) (A) (A)
                 (A) (A) (A) (A) (A) (A) (A) (A) (A) (A) (A) (A)
                 (A) (A) (A) (A) (A) (A) (A) (A) (A) (A) (A) (A)
                 (A) (A) (A) (A) (A) (A) (A) (A) (A) (A) (A) (A)
                 (A) (A) (A) (A) (A) (A) (A) (A) (A) (A) (A) (A)
                 (A) (A) (A) (A) (A) (A) (A) (A) (A) (A) (A) (A)
                 (A) (A) (A) (A) (A) (A) (A) (A) (A) (A) (A) (A)
                 (A) (A) (A) (A) (A) (A) (A) (A) (A) (A) (A) (A)
                 (A) (A) (A) (A) (A) (A) (A) (A) (A) (A) (A) (A)
                 (A) (A)
 The electronic state is 1-A.
 Alpha  occ. eigenvalues --  -25.20157 -25.20033 -14.78530 -14.78529 -14.75330
 Alpha  occ. eigenvalues --  -10.61532 -10.59346 -10.59245 -10.59245 -10.58864
 Alpha  occ. eigenvalues --  -10.58863 -10.56086 -10.56086 -10.55270 -10.55077
 Alpha  occ. eigenvalues --  -10.55064 -10.54521 -10.54521 -10.53744 -10.53739
 Alpha  occ. eigenvalues --   -7.12912  -1.31824  -1.28506  -1.10434  -1.08357
 Alpha  occ. eigenvalues --   -1.03998  -0.95839  -0.91002  -0.89197  -0.87468
 Alpha  occ. eigenvalues --   -0.84745  -0.82716  -0.81773  -0.75307  -0.69814
 Alpha  occ. eigenvalues --   -0.69484  -0.69285  -0.66090  -0.65934  -0.65814
 Alpha  occ. eigenvalues --   -0.62027  -0.60328  -0.60075  -0.59150  -0.58010
 Alpha  occ. eigenvalues --   -0.57768  -0.54143  -0.53168  -0.52044  -0.51320
 Alpha  occ. eigenvalues --   -0.50797  -0.50691  -0.49380  -0.49112  -0.48867
 Alpha  occ. eigenvalues --   -0.48135  -0.47146  -0.46888  -0.46886  -0.46344
 Alpha  occ. eigenvalues --   -0.46062  -0.45857  -0.44867  -0.42556  -0.42555
 Alpha  occ. eigenvalues --   -0.39919  -0.38443  -0.35300  -0.32662  -0.32073
 Alpha  occ. eigenvalues --   -0.31473  -0.27108  -0.24778
 Alpha virt. eigenvalues --   -0.09113   0.01801   0.03092   0.05593   0.06777
 Alpha virt. eigenvalues --    0.07311   0.07974   0.09125   0.09417   0.09760
 Alpha virt. eigenvalues --    0.10399   0.10587   0.11550   0.11613   0.12349
 Alpha virt. eigenvalues --    0.12393   0.13247   0.13848   0.14759   0.14834
 Alpha virt. eigenvalues --    0.15425   0.16961   0.18063   0.18078   0.18239
 Alpha virt. eigenvalues --    0.19539   0.19750   0.19884   0.20627   0.21239
 Alpha virt. eigenvalues --    0.22058   0.22789   0.23064   0.23469   0.23582
 Alpha virt. eigenvalues --    0.24849   0.26113   0.26199   0.26368   0.26567
 Alpha virt. eigenvalues --    0.27220   0.28268   0.29176   0.29350   0.31080
 Alpha virt. eigenvalues --    0.31099   0.31532   0.31640   0.32126   0.32743
 Alpha virt. eigenvalues --    0.32850   0.33979   0.34281   0.34324   0.35057
 Alpha virt. eigenvalues --    0.35581   0.36138   0.36294   0.36855   0.37150
 Alpha virt. eigenvalues --    0.38186   0.38266   0.39383   0.39656   0.39740
 Alpha virt. eigenvalues --    0.39931   0.40050   0.40444   0.41456   0.42202
 Alpha virt. eigenvalues --    0.42369   0.43578   0.43782   0.44320   0.44379
 Alpha virt. eigenvalues --    0.44952   0.45335   0.45400   0.45555   0.45797
 Alpha virt. eigenvalues --    0.46735   0.46978   0.48718   0.48786   0.48871
 Alpha virt. eigenvalues --    0.49389   0.49491   0.50592   0.50744   0.50920
 Alpha virt. eigenvalues --    0.51562   0.52521   0.53407   0.53738   0.54012
 Alpha virt. eigenvalues --    0.54127   0.54991   0.55623   0.56693   0.57533
 Alpha virt. eigenvalues --    0.59153   0.59250   0.60022   0.60799   0.62055
 Alpha virt. eigenvalues --    0.62733   0.63298   0.63497   0.63824   0.63910
 Alpha virt. eigenvalues --    0.65054   0.65696   0.66858   0.67163   0.67375
 Alpha virt. eigenvalues --    0.67981   0.68176   0.69945   0.70288   0.71897
 Alpha virt. eigenvalues --    0.72112   0.72439   0.72594   0.73223   0.74295
 Alpha virt. eigenvalues --    0.74987   0.75236   0.75778   0.76617   0.77549
 Alpha virt. eigenvalues --    0.78098   0.78589   0.78659   0.78999   0.79688
 Alpha virt. eigenvalues --    0.79723   0.79978   0.80447   0.81598   0.82730
 Alpha virt. eigenvalues --    0.83507   0.84281   0.85068   0.85338   0.85430
 Alpha virt. eigenvalues --    0.87431   0.87987   0.88169   0.89390   0.90527
 Alpha virt. eigenvalues --    0.90583   0.91281   0.94417   0.94721   0.96246
 Alpha virt. eigenvalues --    0.98534   0.99468   0.99493   0.99933   1.00642
 Alpha virt. eigenvalues --    1.00664   1.00844   1.00982   1.02186   1.02427
 Alpha virt. eigenvalues --    1.02788   1.03238   1.03779   1.06259   1.06381
 Alpha virt. eigenvalues --    1.06518   1.07444   1.10851   1.10904   1.12306
 Alpha virt. eigenvalues --    1.12553   1.13962   1.13978   1.14483   1.14979
 Alpha virt. eigenvalues --    1.16545   1.16919   1.17375   1.18951   1.19331
 Alpha virt. eigenvalues --    1.20815   1.21615   1.22170   1.23582   1.24469
 Alpha virt. eigenvalues --    1.25395   1.26114   1.26747   1.28723   1.29573
 Alpha virt. eigenvalues --    1.29683   1.30128   1.31535   1.32353   1.32784
 Alpha virt. eigenvalues --    1.33283   1.35625   1.37482   1.37554   1.38069
 Alpha virt. eigenvalues --    1.38743   1.39833   1.40579   1.41528   1.42152
 Alpha virt. eigenvalues --    1.42894   1.44481   1.45734   1.45823   1.47571
 Alpha virt. eigenvalues --    1.49512   1.49924   1.50041   1.51591   1.51642
 Alpha virt. eigenvalues --    1.52174   1.52904   1.53388   1.54212   1.55479
 Alpha virt. eigenvalues --    1.55874   1.56412   1.57541   1.57999   1.58830
 Alpha virt. eigenvalues --    1.59325   1.59715   1.61352   1.61981   1.62808
 Alpha virt. eigenvalues --    1.63783   1.64087   1.64476   1.65414   1.65634
 Alpha virt. eigenvalues --    1.65861   1.67489   1.68187   1.68476   1.69281
 Alpha virt. eigenvalues --    1.69540   1.70527   1.71292   1.73118   1.73791
 Alpha virt. eigenvalues --    1.75227   1.75886   1.77141   1.78145   1.78853
 Alpha virt. eigenvalues --    1.80534   1.81691   1.82444   1.82776   1.83094
 Alpha virt. eigenvalues --    1.83263   1.83333   1.85064   1.85303   1.86751
 Alpha virt. eigenvalues --    1.86763   1.88575   1.88626   1.88945   1.92204
 Alpha virt. eigenvalues --    1.92407   1.92582   1.94060   1.95047   1.96100
 Alpha virt. eigenvalues --    1.97258   1.98564   1.99490   2.02133   2.03266
 Alpha virt. eigenvalues --    2.03739   2.04193   2.04697   2.05283   2.07469
 Alpha virt. eigenvalues --    2.08611   2.09392   2.10966   2.11796   2.12710
 Alpha virt. eigenvalues --    2.14318   2.15563   2.16002   2.16239   2.16948
 Alpha virt. eigenvalues --    2.18732   2.20424   2.21594   2.21800   2.22673
 Alpha virt. eigenvalues --    2.22828   2.23317   2.24275   2.25557   2.26405
 Alpha virt. eigenvalues --    2.28588   2.29164   2.29835   2.30725   2.31366
 Alpha virt. eigenvalues --    2.32093   2.32376   2.32747   2.36266   2.37798
 Alpha virt. eigenvalues --    2.38345   2.38945   2.41089   2.42496   2.42754
 Alpha virt. eigenvalues --    2.42801   2.43815   2.46532   2.47829   2.50098
 Alpha virt. eigenvalues --    2.50569   2.50893   2.53247   2.53578   2.54209
 Alpha virt. eigenvalues --    2.55178   2.55521   2.56601   2.58061   2.58321
 Alpha virt. eigenvalues --    2.60075   2.60468   2.61513   2.62274   2.62557
 Alpha virt. eigenvalues --    2.62588   2.63175   2.64018   2.64988   2.66356
 Alpha virt. eigenvalues --    2.66619   2.66799   2.67705   2.68408   2.68800
 Alpha virt. eigenvalues --    2.69350   2.69432   2.69605   2.71660   2.72759
 Alpha virt. eigenvalues --    2.72991   2.73117   2.76163   2.76638   2.76894
 Alpha virt. eigenvalues --    2.76986   2.77842   2.79645   2.80135   2.80233
 Alpha virt. eigenvalues --    2.80604   2.81405   2.81882   2.82262   2.83030
 Alpha virt. eigenvalues --    2.84504   2.85765   2.86174   2.86399   2.87153
 Alpha virt. eigenvalues --    2.88330   2.89650   2.89914   2.90380   2.91985
 Alpha virt. eigenvalues --    2.92483   2.94086   2.94334   2.94367   2.96682
 Alpha virt. eigenvalues --    2.97368   2.97921   2.98963   2.99346   2.99382
 Alpha virt. eigenvalues --    3.00003   3.00483   3.01911   3.02876   3.04054
 Alpha virt. eigenvalues --    3.04185   3.05499   3.06019   3.07457   3.07669
 Alpha virt. eigenvalues --    3.07868   3.08133   3.10582   3.10680   3.10849
 Alpha virt. eigenvalues --    3.11633   3.11694   3.12792   3.13425   3.13977
 Alpha virt. eigenvalues --    3.14466   3.15063   3.16792   3.17457   3.17532
 Alpha virt. eigenvalues --    3.18480   3.18819   3.19976   3.20524   3.21290
 Alpha virt. eigenvalues --    3.21405   3.21518   3.22420   3.22805   3.25438
 Alpha virt. eigenvalues --    3.26483   3.27077   3.27493   3.27965   3.29201
 Alpha virt. eigenvalues --    3.29856   3.31176   3.31310   3.31605   3.32665
 Alpha virt. eigenvalues --    3.32718   3.34809   3.34889   3.35666   3.36328
 Alpha virt. eigenvalues --    3.36557   3.37541   3.37720   3.37853   3.39222
 Alpha virt. eigenvalues --    3.40335   3.41744   3.42259   3.43854   3.44703
 Alpha virt. eigenvalues --    3.45064   3.45237   3.47174   3.47494   3.47969
 Alpha virt. eigenvalues --    3.48431   3.49842   3.51130   3.51962   3.52097
 Alpha virt. eigenvalues --    3.52571   3.53619   3.54252   3.54278   3.54979
 Alpha virt. eigenvalues --    3.58820   3.59768   3.59962   3.60189   3.61189
 Alpha virt. eigenvalues --    3.61421   3.63356   3.63593   3.64238   3.65992
 Alpha virt. eigenvalues --    3.68138   3.69124   3.69906   3.72092   3.72350
 Alpha virt. eigenvalues --    3.74045   3.74478   3.77502   3.77697   3.78679
 Alpha virt. eigenvalues --    3.79529   3.81128   3.81606   3.81964   3.86417
 Alpha virt. eigenvalues --    3.86889   3.87311   3.87643   3.93120   3.94264
 Alpha virt. eigenvalues --    3.96957   3.97140   3.97715   3.99342   4.00539
 Alpha virt. eigenvalues --    4.00863   4.01816   4.03839   4.05142   4.05378
 Alpha virt. eigenvalues --    4.07056   4.07445   4.07919   4.09289   4.10090
 Alpha virt. eigenvalues --    4.10286   4.11357   4.14633   4.14719   4.15980
 Alpha virt. eigenvalues --    4.16993   4.17915   4.19185   4.20013   4.21235
 Alpha virt. eigenvalues --    4.23750   4.24237   4.24257   4.24410   4.26944
 Alpha virt. eigenvalues --    4.27798   4.29337   4.29968   4.30894   4.31027
 Alpha virt. eigenvalues --    4.32099   4.34510   4.36236   4.37654   4.40475
 Alpha virt. eigenvalues --    4.46270   4.47832   4.48827   4.49928   4.49985
 Alpha virt. eigenvalues --    4.53603   4.57170   4.57628   4.58336   4.64531
 Alpha virt. eigenvalues --    4.64794   4.66396   4.67889   4.68638   4.71258
 Alpha virt. eigenvalues --    4.74829   4.75324   4.75478   4.77512   4.78273
 Alpha virt. eigenvalues --    4.78345   4.80696   4.80738   4.81424   4.84817
 Alpha virt. eigenvalues --    4.85528   4.86354   4.88741   4.91971   4.93495
 Alpha virt. eigenvalues --    4.94893   4.96267   4.96573   4.99804   5.01442
 Alpha virt. eigenvalues --    5.02095   5.03071   5.09679   5.11452   5.13593
 Alpha virt. eigenvalues --    5.15279   5.15871   5.19147   5.21981   5.22098
 Alpha virt. eigenvalues --    5.22519   5.26018   5.28240   5.30915   5.32214
 Alpha virt. eigenvalues --    5.34628   5.36529   5.37460   5.40436   5.42780
 Alpha virt. eigenvalues --    5.46916   5.49347   5.53581   5.55847   5.62012
 Alpha virt. eigenvalues --    5.72178   5.74205   5.76268   5.79643   5.81381
 Alpha virt. eigenvalues --    5.86172   5.88645   5.92142   5.96892   6.07630
 Alpha virt. eigenvalues --    6.94185   6.94303   6.96604   6.96782   6.98645
 Alpha virt. eigenvalues --    6.98883   7.04475   7.10870   7.17408   7.21413
 Alpha virt. eigenvalues --    7.22960   7.25348   7.32767   7.33894   8.41633
 Alpha virt. eigenvalues --    8.44673   8.54497   8.56314   8.78402   8.83372
 Alpha virt. eigenvalues --    8.86471   8.89655   8.89905   8.98961  15.84010
 Alpha virt. eigenvalues --   22.43626  22.45047  22.50519  22.68916  22.70113
 Alpha virt. eigenvalues --   22.75532  22.81374  22.82999  22.83360  22.86842
 Alpha virt. eigenvalues --   22.98680  23.11081  23.21966  23.34839  23.64054
 Alpha virt. eigenvalues --   32.21960  33.00570  33.05517  57.21105  57.43149
          Condensed to atoms (all electrons):
               1          2          3          4          5          6
     1  C    5.395319  -0.044413   0.205237   0.510517  -0.107078  -0.172189
     2  C   -0.044413   5.395341   0.205165   0.019210   0.002805  -0.003209
     3  C    0.205237   0.205165   5.655672  -0.102226   0.009435   0.004782
     4  C    0.510517   0.019210  -0.102226   5.206297   0.488770  -0.101633
     5  C   -0.107078   0.002805   0.009435   0.488770   5.055086   0.589218
     6  C   -0.172189  -0.003209   0.004782  -0.101633   0.589218   5.081041
     7  H    0.005574   0.000008  -0.000190  -0.028938   0.418413  -0.028571
     8  C   -0.003195  -0.172200   0.004706  -0.000050   0.000081  -0.000464
     9  C    0.019222   0.510562  -0.102456   0.000631  -0.000003  -0.000050
    10  C    0.002801  -0.107060   0.009518  -0.000003  -0.000013   0.000080
    11  H    0.000008   0.005576  -0.000189  -0.000001   0.000000  -0.000000
    12  N    0.363967  -0.030331  -0.025739  -0.125390  -0.101276   0.403310
    13  N   -0.030337   0.363930  -0.025691  -0.000572  -0.000481  -0.000118
    14  B   -0.078085  -0.078083   0.022419   0.001328  -0.006400  -0.021449
    15  F   -0.007628  -0.007643   0.004879   0.000194  -0.000321  -0.004133
    16  F   -0.008674  -0.008664   0.003320   0.000229   0.000072  -0.001854
    17  C   -0.165045  -0.164990   0.370613  -0.010080  -0.002057  -0.001035
    18  C    0.010421   0.010182  -0.100617  -0.001938  -0.000137  -0.000047
    19  C    0.006094   0.006313  -0.093732  -0.003403   0.000063  -0.000124
    20  C    0.000247   0.000119  -0.008045  -0.001177  -0.000085   0.000020
    21  H    0.003157   0.003139  -0.000890   0.001119  -0.000047  -0.000001
    22  C    0.000607   0.000719  -0.007983  -0.000621  -0.000113   0.000029
    23  H    0.002685   0.002703   0.000261   0.000844  -0.000027  -0.000005
    24  C    0.000412   0.000416   0.003491  -0.000670  -0.000011   0.000001
    25  H   -0.000032  -0.000032  -0.000178   0.000015  -0.000001   0.000000
    26  H   -0.000038  -0.000038  -0.000198   0.000018  -0.000001   0.000000
    27  H   -0.001283  -0.033033  -0.004530  -0.000027   0.000002  -0.000002
    28  H    0.000282   0.010290  -0.000983   0.000001   0.000002  -0.000016
    29  H   -0.033037  -0.001282  -0.004516   0.406538  -0.018020   0.003688
    30  H    0.010292   0.000281  -0.000979   0.003963  -0.021314   0.411116
    31  N   -0.000012  -0.000012  -0.000055   0.000015   0.000000  -0.000000
    32  H   -0.000000  -0.000000   0.000002  -0.000000  -0.000000   0.000000
    33  H   -0.000000  -0.000000   0.000002   0.000000  -0.000000   0.000000
               7          8          9         10         11         12
     1  C    0.005574  -0.003195   0.019222   0.002801   0.000008   0.363967
     2  C    0.000008  -0.172200   0.510562  -0.107060   0.005576  -0.030331
     3  C   -0.000190   0.004706  -0.102456   0.009518  -0.000189  -0.025739
     4  C   -0.028938  -0.000050   0.000631  -0.000003  -0.000001  -0.125390
     5  C    0.418413   0.000081  -0.000003  -0.000013   0.000000  -0.101276
     6  C   -0.028571  -0.000464  -0.000050   0.000080  -0.000000   0.403310
     7  H    0.450620  -0.000000  -0.000001   0.000000  -0.000000   0.003758
     8  C   -0.000000   5.081071  -0.101558   0.589160  -0.028572  -0.000121
     9  C   -0.000001  -0.101558   5.206590   0.488613  -0.028943  -0.000573
    10  C    0.000000   0.589160   0.488613   5.055209   0.418417  -0.000480
    11  H   -0.000000  -0.028572  -0.028943   0.418417   0.450622   0.000008
    12  N    0.003758  -0.000121  -0.000573  -0.000480   0.000008   6.449504
    13  N    0.000008   0.403309  -0.125384  -0.101281   0.003757  -0.038408
    14  B   -0.000030  -0.021428   0.001332  -0.006407  -0.000030   0.360439
    15  F    0.000007  -0.004146   0.000189  -0.000322   0.000007  -0.046544
    16  F    0.000004  -0.001840   0.000234   0.000072   0.000004  -0.042780
    17  C    0.000053  -0.001042  -0.010112  -0.002048   0.000053   0.011167
    18  C   -0.000007  -0.000034  -0.001843  -0.000162  -0.000007  -0.000354
    19  C   -0.000006  -0.000132  -0.003460   0.000079  -0.000006  -0.000131
    20  C    0.000002   0.000019  -0.001115  -0.000081   0.000002   0.000043
    21  H   -0.000000  -0.000000   0.001091  -0.000048  -0.000000  -0.000050
    22  C    0.000001   0.000030  -0.000690  -0.000116   0.000001   0.000034
    23  H   -0.000000  -0.000006   0.000875  -0.000027  -0.000000  -0.000057
    24  C   -0.000000   0.000001  -0.000670  -0.000012  -0.000000  -0.000006
    25  H    0.000000   0.000000   0.000016  -0.000001   0.000000   0.000000
    26  H    0.000000   0.000000   0.000017  -0.000001   0.000000   0.000000
    27  H   -0.000000   0.003692   0.406554  -0.018035  -0.001200   0.000035
    28  H   -0.000000   0.411125   0.003970  -0.021322  -0.000595  -0.000053
    29  H   -0.001200  -0.000002  -0.000028   0.000002  -0.000000   0.004205
    30  H   -0.000595  -0.000016   0.000001   0.000002  -0.000000  -0.032816
    31  N    0.000000  -0.000000   0.000015   0.000000   0.000000  -0.000000
    32  H   -0.000000   0.000000   0.000000  -0.000000  -0.000000  -0.000000
    33  H   -0.000000   0.000000   0.000000  -0.000000  -0.000000  -0.000000
              13         14         15         16         17         18
     1  C   -0.030337  -0.078085  -0.007628  -0.008674  -0.165045   0.010421
     2  C    0.363930  -0.078083  -0.007643  -0.008664  -0.164990   0.010182
     3  C   -0.025691   0.022419   0.004879   0.003320   0.370613  -0.100617
     4  C   -0.000572   0.001328   0.000194   0.000229  -0.010080  -0.001938
     5  C   -0.000481  -0.006400  -0.000321   0.000072  -0.002057  -0.000137
     6  C   -0.000118  -0.021449  -0.004133  -0.001854  -0.001035  -0.000047
     7  H    0.000008  -0.000030   0.000007   0.000004   0.000053  -0.000007
     8  C    0.403309  -0.021428  -0.004146  -0.001840  -0.001042  -0.000034
     9  C   -0.125384   0.001332   0.000189   0.000234  -0.010112  -0.001843
    10  C   -0.101281  -0.006407  -0.000322   0.000072  -0.002048  -0.000162
    11  H    0.003757  -0.000030   0.000007   0.000004   0.000053  -0.000007
    12  N   -0.038408   0.360439  -0.046544  -0.042780   0.011167  -0.000354
    13  N    6.449496   0.360462  -0.046521  -0.042791   0.011173  -0.000358
    14  B    0.360462   3.315331   0.367172   0.358537   0.013242  -0.000007
    15  F   -0.046521   0.367172   9.178346  -0.037412   0.000191  -0.000002
    16  F   -0.042791   0.358537  -0.037412   9.177192   0.000049   0.000002
    17  C    0.011173   0.013242   0.000191   0.000049   5.468040   0.331972
    18  C   -0.000358  -0.000007  -0.000002   0.000002   0.331972   5.188752
    19  C   -0.000128  -0.000296   0.000001  -0.000002   0.346139  -0.126150
    20  C    0.000042   0.000027   0.000000   0.000000  -0.007346   0.449935
    21  H   -0.000048  -0.000050  -0.000000  -0.000001  -0.041224   0.418736
    22  C    0.000035   0.000032   0.000000   0.000000  -0.013193  -0.007791
    23  H   -0.000059  -0.000044  -0.000002  -0.000000  -0.040338   0.007296
    24  C   -0.000006   0.000003   0.000000   0.000000  -0.028229  -0.020109
    25  H    0.000000   0.000001   0.000000  -0.000000   0.002976  -0.010511
    26  H    0.000000   0.000001  -0.000000   0.000000   0.003063  -0.000722
    27  H    0.004206   0.000532   0.000006   0.000007   0.010019  -0.002390
    28  H   -0.032819  -0.003042  -0.000503   0.000844  -0.000032   0.000002
    29  H    0.000035   0.000532   0.000006   0.000007   0.010017  -0.002434
    30  H   -0.000053  -0.003046  -0.000510   0.000855  -0.000032   0.000002
    31  N   -0.000000   0.000000   0.000000   0.000000   0.002184  -0.002830
    32  H   -0.000000   0.000000   0.000000  -0.000000  -0.000061  -0.000333
    33  H   -0.000000   0.000000   0.000000   0.000000  -0.000063   0.001467
              19         20         21         22         23         24
     1  C    0.006094   0.000247   0.003157   0.000607   0.002685   0.000412
     2  C    0.006313   0.000119   0.003139   0.000719   0.002703   0.000416
     3  C   -0.093732  -0.008045  -0.000890  -0.007983   0.000261   0.003491
     4  C   -0.003403  -0.001177   0.001119  -0.000621   0.000844  -0.000670
     5  C    0.000063  -0.000085  -0.000047  -0.000113  -0.000027  -0.000011
     6  C   -0.000124   0.000020  -0.000001   0.000029  -0.000005   0.000001
     7  H   -0.000006   0.000002  -0.000000   0.000001  -0.000000  -0.000000
     8  C   -0.000132   0.000019  -0.000000   0.000030  -0.000006   0.000001
     9  C   -0.003460  -0.001115   0.001091  -0.000690   0.000875  -0.000670
    10  C    0.000079  -0.000081  -0.000048  -0.000116  -0.000027  -0.000012
    11  H   -0.000006   0.000002  -0.000000   0.000001  -0.000000  -0.000000
    12  N   -0.000131   0.000043  -0.000050   0.000034  -0.000057  -0.000006
    13  N   -0.000128   0.000042  -0.000048   0.000035  -0.000059  -0.000006
    14  B   -0.000296   0.000027  -0.000050   0.000032  -0.000044   0.000003
    15  F    0.000001   0.000000  -0.000000   0.000000  -0.000002   0.000000
    16  F   -0.000002   0.000000  -0.000001   0.000000  -0.000000   0.000000
    17  C    0.346139  -0.007346  -0.041224  -0.013193  -0.040338  -0.028229
    18  C   -0.126150   0.449935   0.418736  -0.007791   0.007296  -0.020109
    19  C    5.170764  -0.007463   0.007186   0.457353   0.417924  -0.023247
    20  C   -0.007463   5.061775  -0.035533  -0.024478  -0.001995   0.405986
    21  H    0.007186  -0.035533   0.428736  -0.001957  -0.000084   0.005354
    22  C    0.457353  -0.024478  -0.001957   5.057818  -0.035347   0.408372
    23  H    0.417924  -0.001995  -0.000084  -0.035347   0.429094   0.005268
    24  C   -0.023247   0.405986   0.005354   0.408372   0.005268   4.613591
    25  H   -0.000638   0.397306  -0.003546   0.002935   0.000023  -0.029960
    26  H   -0.010285   0.003003   0.000021   0.397135  -0.003542  -0.030062
    27  H   -0.002396   0.000851   0.000102   0.000918   0.000074  -0.000164
    28  H    0.000001  -0.000000  -0.000000  -0.000000  -0.000000   0.000000
    29  H   -0.002361   0.000861   0.000107   0.000910   0.000070  -0.000165
    30  H    0.000001  -0.000000  -0.000000  -0.000000  -0.000000   0.000000
    31  N   -0.002932  -0.040243  -0.000141  -0.040363  -0.000141   0.401668
    32  H    0.001467   0.004086   0.000009  -0.006024  -0.000021  -0.027661
    33  H   -0.000330  -0.006039  -0.000021   0.004087   0.000009  -0.027643
              25         26         27         28         29         30
     1  C   -0.000032  -0.000038  -0.001283   0.000282  -0.033037   0.010292
     2  C   -0.000032  -0.000038  -0.033033   0.010290  -0.001282   0.000281
     3  C   -0.000178  -0.000198  -0.004530  -0.000983  -0.004516  -0.000979
     4  C    0.000015   0.000018  -0.000027   0.000001   0.406538   0.003963
     5  C   -0.000001  -0.000001   0.000002   0.000002  -0.018020  -0.021314
     6  C    0.000000   0.000000  -0.000002  -0.000016   0.003688   0.411116
     7  H    0.000000   0.000000  -0.000000  -0.000000  -0.001200  -0.000595
     8  C    0.000000   0.000000   0.003692   0.411125  -0.000002  -0.000016
     9  C    0.000016   0.000017   0.406554   0.003970  -0.000028   0.000001
    10  C   -0.000001  -0.000001  -0.018035  -0.021322   0.000002   0.000002
    11  H    0.000000   0.000000  -0.001200  -0.000595  -0.000000  -0.000000
    12  N    0.000000   0.000000   0.000035  -0.000053   0.004205  -0.032816
    13  N    0.000000   0.000000   0.004206  -0.032819   0.000035  -0.000053
    14  B    0.000001   0.000001   0.000532  -0.003042   0.000532  -0.003046
    15  F    0.000000  -0.000000   0.000006  -0.000503   0.000006  -0.000510
    16  F   -0.000000   0.000000   0.000007   0.000844   0.000007   0.000855
    17  C    0.002976   0.003063   0.010019  -0.000032   0.010017  -0.000032
    18  C   -0.010511  -0.000722  -0.002390   0.000002  -0.002434   0.000002
    19  C   -0.000638  -0.010285  -0.002396   0.000001  -0.002361   0.000001
    20  C    0.397306   0.003003   0.000851  -0.000000   0.000861  -0.000000
    21  H   -0.003546   0.000021   0.000102  -0.000000   0.000107  -0.000000
    22  C    0.002935   0.397135   0.000918  -0.000000   0.000910  -0.000000
    23  H    0.000023  -0.003542   0.000074  -0.000000   0.000070  -0.000000
    24  C   -0.029960  -0.030062  -0.000164   0.000000  -0.000165   0.000000
    25  H    0.418743  -0.000167   0.000006  -0.000000   0.000006  -0.000000
    26  H   -0.000167   0.418850   0.000007  -0.000000   0.000007  -0.000000
    27  H    0.000006   0.000007   0.438687  -0.000111  -0.000001  -0.000000
    28  H   -0.000000  -0.000000  -0.000111   0.432588  -0.000000  -0.000001
    29  H    0.000006   0.000007  -0.000001  -0.000000   0.438677  -0.000111
    30  H   -0.000000  -0.000000  -0.000000  -0.000001  -0.000111   0.432585
    31  N    0.002373   0.002369  -0.000016  -0.000000  -0.000016  -0.000000
    32  H   -0.000138   0.001781  -0.000000  -0.000000  -0.000000  -0.000000
    33  H    0.001767  -0.000139  -0.000000  -0.000000  -0.000000  -0.000000
              31         32         33
     1  C   -0.000012  -0.000000  -0.000000
     2  C   -0.000012  -0.000000  -0.000000
     3  C   -0.000055   0.000002   0.000002
     4  C    0.000015  -0.000000   0.000000
     5  C    0.000000  -0.000000  -0.000000
     6  C   -0.000000   0.000000   0.000000
     7  H    0.000000  -0.000000  -0.000000
     8  C   -0.000000   0.000000   0.000000
     9  C    0.000015   0.000000   0.000000
    10  C    0.000000  -0.000000  -0.000000
    11  H    0.000000  -0.000000  -0.000000
    12  N   -0.000000  -0.000000  -0.000000
    13  N   -0.000000  -0.000000  -0.000000
    14  B    0.000000   0.000000   0.000000
    15  F    0.000000   0.000000   0.000000
    16  F    0.000000  -0.000000   0.000000
    17  C    0.002184  -0.000061  -0.000063
    18  C   -0.002830  -0.000333   0.001467
    19  C   -0.002932   0.001467  -0.000330
    20  C   -0.040243   0.004086  -0.006039
    21  H   -0.000141   0.000009  -0.000021
    22  C   -0.040363  -0.006024   0.004087
    23  H   -0.000141  -0.000021   0.000009
    24  C    0.401668  -0.027661  -0.027643
    25  H    0.002373  -0.000138   0.001767
    26  H    0.002369   0.001781  -0.000139
    27  H   -0.000016  -0.000000  -0.000000
    28  H   -0.000000  -0.000000  -0.000000
    29  H   -0.000016  -0.000000  -0.000000
    30  H   -0.000000  -0.000000  -0.000000
    31  N    6.314504   0.368820   0.368822
    32  H    0.368820   0.332399  -0.016382
    33  H    0.368822  -0.016382   0.332461
 Mulliken charges:
               1
     1  C    0.114202
     2  C    0.114230
     3  C   -0.020305
     4  C   -0.262961
     5  C   -0.306562
     6  C   -0.158387
     7  H    0.181092
     8  C   -0.158387
     9  C   -0.263025
    10  C   -0.306535
    11  H    0.181090
    12  N   -0.151361
    13  N   -0.151399
    14  B    0.417008
    15  F   -0.395310
    16  F   -0.397408
    17  C   -0.094027
    18  C   -0.139983
    19  C   -0.136166
    20  C   -0.190725
    21  H    0.214884
    22  C   -0.192339
    23  H    0.214570
    24  C    0.344053
    25  H    0.219037
    26  H    0.218922
    27  H    0.197493
    28  H    0.200373
    29  H    0.197504
    30  H    0.200376
    31  N   -0.374010
    32  H    0.342056
    33  H    0.342002
 Sum of Mulliken charges =  -0.00000
 Mulliken charges with hydrogens summed into heavy atoms:
               1
     1  C    0.114202
     2  C    0.114230
     3  C   -0.020305
     4  C   -0.065457
     5  C   -0.125470
     6  C    0.041989
     8  C    0.041986
     9  C   -0.065532
    10  C   -0.125446
    12  N   -0.151361
    13  N   -0.151399
    14  B    0.417008
    15  F   -0.395310
    16  F   -0.397408
    17  C   -0.094027
    18  C    0.074901
    19  C    0.078404
    20  C    0.028312
    22  C    0.026583
    24  C    0.344053
    31  N    0.310049
 Electronic spatial extent (au):  <R**2>=           6185.2720
 Charge=             -0.0000 electrons
 Dipole moment (field-independent basis, Debye):
    X=             30.5890    Y=              0.0006    Z=             -0.1824  Tot=             30.5896
 Quadrupole moment (field-independent basis, Debye-Ang):
   XX=            -42.2255   YY=           -125.2567   ZZ=           -118.2758
   XY=             -0.0073   XZ=              1.5058   YZ=             -0.0920
 Traceless Quadrupole moment (field-independent basis, Debye-Ang):
   XX=             53.0272   YY=            -30.0040   ZZ=            -23.0231
   XY=             -0.0073   XZ=              1.5058   YZ=             -0.0920
 Octapole moment (field-independent basis, Debye-Ang**2):
  XXX=            753.2788  YYY=             -0.0048  ZZZ=              1.7360  XYY=            -18.2130
  XXY=             -0.0279  XXZ=              0.9587  XZZ=             72.3087  YZZ=              0.0004
  YYZ=             -0.6124  XYZ=             -0.3749
 Hexadecapole moment (field-independent basis, Debye-Ang**3):
 XXXX=          -1973.5042 YYYY=          -2082.2487 ZZZZ=           -429.4146 XXXY=             -0.2970
 XXXZ=             21.9721 YYYX=              0.0027 YYYZ=              0.1182 ZZZX=              5.0465
 ZZZY=             -0.6910 XXYY=          -1248.1312 XXZZ=           -844.9138 YYZZ=           -516.9509
 XXYZ=             -1.5545 YYXZ=              0.1549 ZZXY=             -0.0131
 N-N= 1.580272562191D+03 E-N=-5.423892350043D+03  KE= 9.625494302309D+02
 Unable to Open any file for archive entry.
 1\1\GINC-X1003C4S5B1N0\SP\RM062X TD-FC\def2TZVP\C15H12B1F2N3\1008721\0
 8-Oct-2025\0\\# m062x/def2tzvp geom=check guess=read TD=(Read, NStates
 =3, Root=1) SCRF=(SMD, solvent=ethanol, CorrectedLR, NonEq=Save)\\BDP-
 NH2_ethanol_m062x_m062x_m062x\\0,1\C,0,-0.619573,1.230661,-0.02482\C,0
 ,-0.619396,-1.23053,-0.027405\C,0,0.09279,0.000105,-0.015291\C,0,-0.16
 9924,2.570715,-0.048718\C,0,-1.321889,3.391935,-0.064267\C,0,-2.427294
 ,2.546153,-0.048856\H,0,-1.351805,4.481031,-0.087539\C,0,-2.4269,-2.54
 6288,-0.053188\C,0,-0.169528,-2.570484,-0.052793\C,0,-1.321357,-3.3918
 68,-0.069588\H,0,-1.351091,-4.480946,-0.09391\N,0,-2.009013,1.241292,-
 0.024374\N,0,-2.008837,-1.241381,-0.027257\B,0,-2.917092,-0.000194,0.0
 50143\F,0,-3.655205,-0.001637,1.256926\F,0,-3.848173,0.000984,-1.01061
 \C,0,1.574783,0.000149,-0.003434\C,0,2.312039,0.006553,-1.221561\C,0,2
 .288943,-0.005981,1.228456\C,0,3.686219,0.007326,-1.223117\H,0,1.76762
 3,0.011495,-2.167546\C,0,3.662602,-0.006907,1.255773\H,0,1.726691,-0.0
 10685,2.163948\C,0,4.396489,0.000022,0.023255\H,0,4.254689,0.013226,-2
 .155167\H,0,4.214234,-0.012637,2.197961\H,0,0.871266,-2.890132,-0.0633
 37\H,0,-3.487985,-2.792314,-0.057209\H,0,0.870812,2.890536,-0.059656\H
 ,0,-3.488421,2.791992,-0.053144\N,0,5.726341,-0.000351,0.036858\H,0,6.
 241988,-0.005745,0.915609\H,0,6.260394,0.004719,-0.83083\\Version=ES64
 L-G16RevC.01\State=1-A\HF=-967.8136095\RMSD=1.958e-09\Dipole=12.034657
 7,0.0002521,-0.0717753\Quadrupole=39.4243979,-22.3072512,-17.1171467,-
 0.0054669,1.1195578,-0.0684252\PG=C01 [X(C15H12B1F2N3)]\\@
 The archive entry for this job was punched.


 AND HERE I AM, FOR ALL MY LORE,
 THE WRETCHED FOOL I WAS BEFORE.
 CALLED MASTER OF ARTS, AND DOCTOR TO BOOT,
 FOR TEN YEARS ALMOST I CONFUTE
 AND UP AND DOWN, WHEREVER IT GOES
 I DRAG MY STUDENTS BY THE NOSE --
 AND SEE THAT FOR ALL OUR SCIENCE AND ART
 WE CAN KNOW NOTHING.  IT BURNS MY HEART.

                                       -- FAUST
 Job cpu time:       1 days  9 hours 17 minutes 30.0 seconds.
 Elapsed time:       0 days  1 hours  2 minutes 58.3 seconds.
 File lengths (MBytes):  RWF=   1506 Int=      0 D2E=      0 Chk=     91 Scr=      1
 Normal termination of Gaussian 16 at Wed Oct  8 02:29:40 2025.
