 Entering Gaussian System, Link 0=g16
 Initial command:
 /home/users/ntu/xiaogan4/Softwares/g16/l1.exe "/scratch/users/ntu/xiaogan4/g16scratch/Gau-1863175.inp" -scrdir="/scratch/users/ntu/xiaogan4/g16scratch/"
 Entering Link 1 = /home/users/ntu/xiaogan4/Softwares/g16/l1.exe PID=   1863176.
  
 Copyright (c) 1988,1990,1992,1993,1995,1998,2003,2009,2016,
            Gaussian, Inc.  All Rights Reserved.
  
 This is part of the Gaussian(R) 16 program.  It is based on
 the Gaussian(R) 09 system (copyright 2009, Gaussian, Inc.),
 the Gaussian(R) 03 system (copyright 2003, Gaussian, Inc.),
 the Gaussian(R) 98 system (copyright 1998, Gaussian, Inc.),
 the Gaussian(R) 94 system (copyright 1995, Gaussian, Inc.),
 the Gaussian 92(TM) system (copyright 1992, Gaussian, Inc.),
 the Gaussian 90(TM) system (copyright 1990, Gaussian, Inc.),
 the Gaussian 88(TM) system (copyright 1988, Gaussian, Inc.),
 the Gaussian 86(TM) system (copyright 1986, Carnegie Mellon
 University), and the Gaussian 82(TM) system (copyright 1983,
 Carnegie Mellon University). Gaussian is a federally registered
 trademark of Gaussian, Inc.
  
 This software contains proprietary and confidential information,
 including trade secrets, belonging to Gaussian, Inc.
  
 This software is provided under written license and may be
 used, copied, transmitted, or stored only in accord with that
 written license.
  
 The following legend is applicable only to US Government
 contracts under FAR:
  
                    RESTRICTED RIGHTS LEGEND
  
 Use, reproduction and disclosure by the US Government is
 subject to restrictions as set forth in subparagraphs (a)
 and (c) of the Commercial Computer Software - Restricted
 Rights clause in FAR 52.227-19.
  
 Gaussian, Inc.
 340 Quinnipiac St., Bldg. 40, Wallingford CT 06492
  
  
 ---------------------------------------------------------------
 Warning -- This program may not be used in any manner that
 competes with the business of Gaussian, Inc. or will provide
 assistance to any competitor of Gaussian, Inc.  The licensee
 of this program is prohibited from giving any competitor of
 Gaussian, Inc. access to this program.  By using this program,
 the user acknowledges that Gaussian, Inc. is engaged in the
 business of creating and licensing software in the field of
 computational chemistry and represents and warrants to the
 licensee that it is not a competitor of Gaussian, Inc. and that
 it will not use this program in any manner prohibited above.
 ---------------------------------------------------------------
  

 Cite this work as:
 Gaussian 16, Revision A.03,
 M. J. Frisch, G. W. Trucks, H. B. Schlegel, G. E. Scuseria, 
 M. A. Robb, J. R. Cheeseman, G. Scalmani, V. Barone, 
 G. A. Petersson, H. Nakatsuji, X. Li, M. Caricato, A. V. Marenich, 
 J. Bloino, B. G. Janesko, R. Gomperts, B. Mennucci, H. P. Hratchian, 
 J. V. Ortiz, A. F. Izmaylov, J. L. Sonnenberg, D. Williams-Young, 
 F. Ding, F. Lipparini, F. Egidi, J. Goings, B. Peng, A. Petrone, 
 T. Henderson, D. Ranasinghe, V. G. Zakrzewski, J. Gao, N. Rega, 
 G. Zheng, W. Liang, M. Hada, M. Ehara, K. Toyota, R. Fukuda, 
 J. Hasegawa, M. Ishida, T. Nakajima, Y. Honda, O. Kitao, H. Nakai, 
 T. Vreven, K. Throssell, J. A. Montgomery, Jr., J. E. Peralta, 
 F. Ogliaro, M. J. Bearpark, J. J. Heyd, E. N. Brothers, K. N. Kudin, 
 V. N. Staroverov, T. A. Keith, R. Kobayashi, J. Normand, 
 K. Raghavachari, A. P. Rendell, J. C. Burant, S. S. Iyengar, 
 J. Tomasi, M. Cossi, J. M. Millam, M. Klene, C. Adamo, R. Cammi, 
 J. W. Ochterski, R. L. Martin, K. Morokuma, O. Farkas, 
 J. B. Foresman, and D. J. Fox, Gaussian, Inc., Wallingford CT, 2016.
 
 ******************************************
 Gaussian 16:  ES64L-G16RevA.03 25-Dec-2016
                22-Dec-2025 
 ******************************************
 %nprocshared=64
 Will use up to   64 processors via shared memory.
 %mem=128GB
 %chk=01C_Si_1_C_C2_CC_N__CC_C2C_C3_C__m062x_def2SVP_ethanol.chk
 ----------------------------------------------------
 # m062x/def2SVP SCRF=(SMD, solvent=Ethanol) Opt Freq
 ----------------------------------------------------
 1/18=20,19=15,26=3,38=1/1,3;
 2/9=110,12=2,17=6,18=5,40=1/2;
 3/5=43,7=101,11=2,25=1,30=1,70=32201,71=1,72=4,74=-55/1,2,3;
 4//1;
 5/5=2,38=5,53=4/2;
 6/7=2,8=2,9=2,10=2,28=1/1;
 7//1,2,3,16;
 1/18=20,19=15,26=3/3(2);
 2/9=110/2;
 99//99;
 2/9=110/2;
 3/5=43,7=101,11=2,25=1,30=1,70=32205,71=1,72=4,74=-55/1,2,3;
 4/5=5,16=3,69=1/1;
 5/5=2,38=5,53=4/2;
 7//1,2,3,16;
 1/18=20,19=15,26=3/3(-5);
 2/9=110/2;
 6/7=2,8=2,9=2,10=2,19=2,28=1/1;
 99/9=1/99;
 --------------------------
 Step1 GS Opt m062x/def2SVP
 --------------------------
 Symbolic Z-matrix:
 Charge =  1 Multiplicity = 1
 C                    -4.05609   1.36748   0.22708 
 Si                   -2.44354   0.96035  -0.62453 
 C                    -2.56205   1.2814   -2.45845 
 C                    -1.02631   1.90719   0.12625 
 C                    -1.17651   3.28704   0.40418 
 C                    -0.15656   4.02957   0.99549 
 N                    -0.28073   5.41175   1.14387 
 C                     1.06108   3.40247   1.21747 
 C                     1.22343   2.0382    0.94556 
 C                     0.18746   1.25085   0.40112 
 C                     0.45119  -0.2167    0.10265 
 C                     1.86737  -0.72018   0.1696 
 C                     2.73633  -0.6393   -0.93724 
 C                     2.3149   -0.008    -2.23582 
 C                     4.02467  -1.17711  -0.81884 
 C                     4.44839  -1.76421   0.37753 
 C                     3.62082  -1.78094   1.49971 
 N                     4.00842  -2.47168   2.65407 
 C                     2.31784  -1.298     1.37353 
 C                    -0.52381  -1.14113  -0.19349 
 C                    -1.96645  -0.82977  -0.32093 
 C                    -2.90227  -1.79922  -0.27886 
 C                    -2.49186  -3.22038  -0.16542 
 C                    -1.06944  -3.55068  -0.38222 
 C                    -0.16912  -2.56017  -0.42228 
 N                    -3.35047  -4.1413    0.0776 
 H                    -4.30695   2.42543   0.10403 
 H                    -4.87987   0.7808   -0.19059 
 H                    -3.99778   1.15593   1.29915 
 H                    -3.35311   0.67508  -2.91006 
 H                    -1.62087   1.03856  -2.96139 
 H                    -2.78912   2.33347  -2.65584 
 H                    -2.10358   3.80028   0.15241 
 H                    -1.23144   5.74231   1.27142 
 H                     0.36119   5.81985   1.81696 
 H                     1.90697   3.96624   1.60276 
 H                     2.20264   1.61547   1.16022 
 H                     3.1168   -0.05183  -2.98064 
 H                     2.06576   1.04703  -2.08598 
 H                     1.45078  -0.53284  -2.6552 
 H                     4.71282  -1.15201  -1.66185 
 H                     5.44418  -2.19883   0.42533 
 H                     3.54551  -2.14991   3.49904 
 H                     5.01665  -2.51974   2.77818 
 H                     1.63817  -1.36723   2.21956 
 H                    -3.96242  -1.57612  -0.36174 
 H                    -0.75257  -4.57968  -0.51613 
 H                     0.86717  -2.83286  -0.60955 
 H                    -4.33744  -3.93509   0.22813 
 H                    -3.08016  -5.12184   0.15412 
 

 GradGradGradGradGradGradGradGradGradGradGradGradGradGradGradGradGradGrad
 Berny optimization.
 Initialization pass.
                           ----------------------------
                           !    Initial Parameters    !
                           ! (Angstroms and Degrees)  !
 --------------------------                            --------------------------
 ! Name  Definition              Value          Derivative Info.                !
 --------------------------------------------------------------------------------
 ! R1    R(1,2)                  1.8685         estimate D2E/DX2                !
 ! R2    R(1,27)                 1.0942         estimate D2E/DX2                !
 ! R3    R(1,28)                 1.0942         estimate D2E/DX2                !
 ! R4    R(1,29)                 1.0943         estimate D2E/DX2                !
 ! R5    R(2,3)                  1.8656         estimate D2E/DX2                !
 ! R6    R(2,4)                  1.8625         estimate D2E/DX2                !
 ! R7    R(2,21)                 1.8773         estimate D2E/DX2                !
 ! R8    R(3,30)                 1.0942         estimate D2E/DX2                !
 ! R9    R(3,31)                 1.0944         estimate D2E/DX2                !
 ! R10   R(3,32)                 1.0942         estimate D2E/DX2                !
 ! R11   R(4,5)                  1.4156         estimate D2E/DX2                !
 ! R12   R(4,10)                 1.407          estimate D2E/DX2                !
 ! R13   R(5,6)                  1.3933         estimate D2E/DX2                !
 ! R14   R(5,33)                 1.0892         estimate D2E/DX2                !
 ! R15   R(6,7)                  1.3957         estimate D2E/DX2                !
 ! R16   R(6,8)                  1.3875         estimate D2E/DX2                !
 ! R17   R(7,34)                 1.0146         estimate D2E/DX2                !
 ! R18   R(7,35)                 1.0157         estimate D2E/DX2                !
 ! R19   R(8,9)                  1.4005         estimate D2E/DX2                !
 ! R20   R(8,36)                 1.0871         estimate D2E/DX2                !
 ! R21   R(9,10)                 1.4105         estimate D2E/DX2                !
 ! R22   R(9,37)                 1.0879         estimate D2E/DX2                !
 ! R23   R(10,11)                1.5206         estimate D2E/DX2                !
 ! R24   R(11,12)                1.5045         estimate D2E/DX2                !
 ! R25   R(11,20)                1.3758         estimate D2E/DX2                !
 ! R26   R(12,13)                1.4095         estimate D2E/DX2                !
 ! R27   R(12,19)                1.4093         estimate D2E/DX2                !
 ! R28   R(13,14)                1.5041         estimate D2E/DX2                !
 ! R29   R(13,15)                1.4011         estimate D2E/DX2                !
 ! R30   R(14,38)                1.0953         estimate D2E/DX2                !
 ! R31   R(14,39)                1.0943         estimate D2E/DX2                !
 ! R32   R(14,40)                1.0946         estimate D2E/DX2                !
 ! R33   R(15,16)                1.3984         estimate D2E/DX2                !
 ! R34   R(15,41)                1.0885         estimate D2E/DX2                !
 ! R35   R(16,17)                1.3944         estimate D2E/DX2                !
 ! R36   R(16,42)                1.0875         estimate D2E/DX2                !
 ! R37   R(17,18)                1.4            estimate D2E/DX2                !
 ! R38   R(17,19)                1.3953         estimate D2E/DX2                !
 ! R39   R(18,43)                1.0158         estimate D2E/DX2                !
 ! R40   R(18,44)                1.017          estimate D2E/DX2                !
 ! R41   R(19,45)                1.0874         estimate D2E/DX2                !
 ! R42   R(20,21)                1.4813         estimate D2E/DX2                !
 ! R43   R(20,25)                1.4805         estimate D2E/DX2                !
 ! R44   R(21,22)                1.3481         estimate D2E/DX2                !
 ! R45   R(22,23)                1.4836         estimate D2E/DX2                !
 ! R46   R(22,46)                1.0865         estimate D2E/DX2                !
 ! R47   R(23,24)                1.4763         estimate D2E/DX2                !
 ! R48   R(23,26)                1.2823         estimate D2E/DX2                !
 ! R49   R(24,25)                1.3391         estimate D2E/DX2                !
 ! R50   R(24,47)                1.085          estimate D2E/DX2                !
 ! R51   R(25,48)                1.0878         estimate D2E/DX2                !
 ! R52   R(26,49)                1.0195         estimate D2E/DX2                !
 ! R53   R(26,50)                1.02           estimate D2E/DX2                !
 ! A1    A(2,1,27)             110.9322         estimate D2E/DX2                !
 ! A2    A(2,1,28)             111.0346         estimate D2E/DX2                !
 ! A3    A(2,1,29)             111.0022         estimate D2E/DX2                !
 ! A4    A(27,1,28)            107.6306         estimate D2E/DX2                !
 ! A5    A(27,1,29)            108.017          estimate D2E/DX2                !
 ! A6    A(28,1,29)            108.0848         estimate D2E/DX2                !
 ! A7    A(1,2,3)              110.8373         estimate D2E/DX2                !
 ! A8    A(1,2,4)              111.2362         estimate D2E/DX2                !
 ! A9    A(1,2,21)             110.6946         estimate D2E/DX2                !
 ! A10   A(3,2,4)              110.9236         estimate D2E/DX2                !
 ! A11   A(3,2,21)             109.8292         estimate D2E/DX2                !
 ! A12   A(4,2,21)             103.0732         estimate D2E/DX2                !
 ! A13   A(2,3,30)             110.8717         estimate D2E/DX2                !
 ! A14   A(2,3,31)             111.0346         estimate D2E/DX2                !
 ! A15   A(2,3,32)             110.8528         estimate D2E/DX2                !
 ! A16   A(30,3,31)            108.0049         estimate D2E/DX2                !
 ! A17   A(30,3,32)            107.9558         estimate D2E/DX2                !
 ! A18   A(31,3,32)            107.9932         estimate D2E/DX2                !
 ! A19   A(2,4,5)              119.6015         estimate D2E/DX2                !
 ! A20   A(2,4,10)             119.8717         estimate D2E/DX2                !
 ! A21   A(5,4,10)             120.5241         estimate D2E/DX2                !
 ! A22   A(4,5,6)              121.6776         estimate D2E/DX2                !
 ! A23   A(4,5,33)             120.2831         estimate D2E/DX2                !
 ! A24   A(6,5,33)             118.0387         estimate D2E/DX2                !
 ! A25   A(5,6,7)              120.5156         estimate D2E/DX2                !
 ! A26   A(5,6,8)              117.9984         estimate D2E/DX2                !
 ! A27   A(7,6,8)              120.5752         estimate D2E/DX2                !
 ! A28   A(6,7,34)             114.7966         estimate D2E/DX2                !
 ! A29   A(6,7,35)             114.3393         estimate D2E/DX2                !
 ! A30   A(34,7,35)            112.2094         estimate D2E/DX2                !
 ! A31   A(6,8,9)              120.7256         estimate D2E/DX2                !
 ! A32   A(6,8,36)             120.3423         estimate D2E/DX2                !
 ! A33   A(9,8,36)             118.9317         estimate D2E/DX2                !
 ! A34   A(8,9,10)             122.2447         estimate D2E/DX2                !
 ! A35   A(8,9,37)             116.3928         estimate D2E/DX2                !
 ! A36   A(10,9,37)            121.3536         estimate D2E/DX2                !
 ! A37   A(4,10,9)             116.6553         estimate D2E/DX2                !
 ! A38   A(4,10,11)            124.1576         estimate D2E/DX2                !
 ! A39   A(9,10,11)            119.1497         estimate D2E/DX2                !
 ! A40   A(10,11,12)           118.5209         estimate D2E/DX2                !
 ! A41   A(10,11,20)           124.5967         estimate D2E/DX2                !
 ! A42   A(12,11,20)           116.8583         estimate D2E/DX2                !
 ! A43   A(11,12,13)           121.7463         estimate D2E/DX2                !
 ! A44   A(11,12,19)           118.43           estimate D2E/DX2                !
 ! A45   A(13,12,19)           119.8203         estimate D2E/DX2                !
 ! A46   A(12,13,14)           121.958          estimate D2E/DX2                !
 ! A47   A(12,13,15)           118.5876         estimate D2E/DX2                !
 ! A48   A(14,13,15)           119.4515         estimate D2E/DX2                !
 ! A49   A(13,14,38)           111.4173         estimate D2E/DX2                !
 ! A50   A(13,14,39)           110.4998         estimate D2E/DX2                !
 ! A51   A(13,14,40)           110.5321         estimate D2E/DX2                !
 ! A52   A(38,14,39)           107.3594         estimate D2E/DX2                !
 ! A53   A(38,14,40)           107.3524         estimate D2E/DX2                !
 ! A54   A(39,14,40)           109.5722         estimate D2E/DX2                !
 ! A55   A(13,15,16)           120.8016         estimate D2E/DX2                !
 ! A56   A(13,15,41)           120.4658         estimate D2E/DX2                !
 ! A57   A(16,15,41)           118.7309         estimate D2E/DX2                !
 ! A58   A(15,16,17)           120.9104         estimate D2E/DX2                !
 ! A59   A(15,16,42)           118.8695         estimate D2E/DX2                !
 ! A60   A(17,16,42)           120.215          estimate D2E/DX2                !
 ! A61   A(16,17,18)           120.3433         estimate D2E/DX2                !
 ! A62   A(16,17,19)           118.5084         estimate D2E/DX2                !
 ! A63   A(18,17,19)           120.2567         estimate D2E/DX2                !
 ! A64   A(17,18,43)           113.7936         estimate D2E/DX2                !
 ! A65   A(17,18,44)           113.48           estimate D2E/DX2                !
 ! A66   A(43,18,44)           111.4233         estimate D2E/DX2                !
 ! A67   A(12,19,17)           121.1735         estimate D2E/DX2                !
 ! A68   A(12,19,45)           119.4018         estimate D2E/DX2                !
 ! A69   A(17,19,45)           119.4246         estimate D2E/DX2                !
 ! A70   A(11,20,21)           124.572          estimate D2E/DX2                !
 ! A71   A(11,20,25)           120.4977         estimate D2E/DX2                !
 ! A72   A(21,20,25)           114.9285         estimate D2E/DX2                !
 ! A73   A(2,21,20)            117.5051         estimate D2E/DX2                !
 ! A74   A(2,21,22)            120.9545         estimate D2E/DX2                !
 ! A75   A(20,21,22)           121.4803         estimate D2E/DX2                !
 ! A76   A(21,22,23)           119.9487         estimate D2E/DX2                !
 ! A77   A(21,22,46)           121.8221         estimate D2E/DX2                !
 ! A78   A(23,22,46)           118.1927         estimate D2E/DX2                !
 ! A79   A(22,23,24)           118.0112         estimate D2E/DX2                !
 ! A80   A(22,23,26)           121.1458         estimate D2E/DX2                !
 ! A81   A(24,23,26)           120.8163         estimate D2E/DX2                !
 ! A82   A(23,24,25)           119.1231         estimate D2E/DX2                !
 ! A83   A(23,24,47)           120.7792         estimate D2E/DX2                !
 ! A84   A(25,24,47)           120.0958         estimate D2E/DX2                !
 ! A85   A(20,25,24)           122.9063         estimate D2E/DX2                !
 ! A86   A(20,25,48)           119.677          estimate D2E/DX2                !
 ! A87   A(24,25,48)           117.4008         estimate D2E/DX2                !
 ! A88   A(23,26,49)           122.0695         estimate D2E/DX2                !
 ! A89   A(23,26,50)           121.8138         estimate D2E/DX2                !
 ! A90   A(49,26,50)           116.1003         estimate D2E/DX2                !
 ! D1    D(27,1,2,3)           -61.3456         estimate D2E/DX2                !
 ! D2    D(27,1,2,4)            62.5623         estimate D2E/DX2                !
 ! D3    D(27,1,2,21)          176.5292         estimate D2E/DX2                !
 ! D4    D(28,1,2,3)            58.2931         estimate D2E/DX2                !
 ! D5    D(28,1,2,4)          -177.799          estimate D2E/DX2                !
 ! D6    D(28,1,2,21)          -63.8321         estimate D2E/DX2                !
 ! D7    D(29,1,2,3)           178.5507         estimate D2E/DX2                !
 ! D8    D(29,1,2,4)           -57.5414         estimate D2E/DX2                !
 ! D9    D(29,1,2,21)           56.4255         estimate D2E/DX2                !
 ! D10   D(1,2,3,30)           -59.6081         estimate D2E/DX2                !
 ! D11   D(1,2,3,31)          -179.6778         estimate D2E/DX2                !
 ! D12   D(1,2,3,32)            60.2797         estimate D2E/DX2                !
 ! D13   D(4,2,3,30)           176.3055         estimate D2E/DX2                !
 ! D14   D(4,2,3,31)            56.2357         estimate D2E/DX2                !
 ! D15   D(4,2,3,32)           -63.8067         estimate D2E/DX2                !
 ! D16   D(21,2,3,30)           63.0209         estimate D2E/DX2                !
 ! D17   D(21,2,3,31)          -57.0488         estimate D2E/DX2                !
 ! D18   D(21,2,3,32)         -177.0913         estimate D2E/DX2                !
 ! D19   D(1,2,4,5)            -45.0696         estimate D2E/DX2                !
 ! D20   D(1,2,4,10)           135.522          estimate D2E/DX2                !
 ! D21   D(3,2,4,5)             78.7893         estimate D2E/DX2                !
 ! D22   D(3,2,4,10)          -100.6191         estimate D2E/DX2                !
 ! D23   D(21,2,4,5)          -163.7195         estimate D2E/DX2                !
 ! D24   D(21,2,4,10)           16.8721         estimate D2E/DX2                !
 ! D25   D(1,2,21,20)         -145.5045         estimate D2E/DX2                !
 ! D26   D(1,2,21,22)           37.2735         estimate D2E/DX2                !
 ! D27   D(3,2,21,20)           91.7821         estimate D2E/DX2                !
 ! D28   D(3,2,21,22)          -85.4399         estimate D2E/DX2                !
 ! D29   D(4,2,21,20)          -26.4776         estimate D2E/DX2                !
 ! D30   D(4,2,21,22)          156.3004         estimate D2E/DX2                !
 ! D31   D(2,4,5,6)            178.3974         estimate D2E/DX2                !
 ! D32   D(2,4,5,33)            -1.9066         estimate D2E/DX2                !
 ! D33   D(10,4,5,6)            -2.1981         estimate D2E/DX2                !
 ! D34   D(10,4,5,33)          177.4979         estimate D2E/DX2                !
 ! D35   D(2,4,10,9)           178.8247         estimate D2E/DX2                !
 ! D36   D(2,4,10,11)            1.0735         estimate D2E/DX2                !
 ! D37   D(5,4,10,9)            -0.5782         estimate D2E/DX2                !
 ! D38   D(5,4,10,11)         -178.3294         estimate D2E/DX2                !
 ! D39   D(4,5,6,7)            173.9273         estimate D2E/DX2                !
 ! D40   D(4,5,6,8)              4.7868         estimate D2E/DX2                !
 ! D41   D(33,5,6,7)            -5.7753         estimate D2E/DX2                !
 ! D42   D(33,5,6,8)          -174.9159         estimate D2E/DX2                !
 ! D43   D(5,6,7,34)            30.7774         estimate D2E/DX2                !
 ! D44   D(5,6,7,35)           162.5348         estimate D2E/DX2                !
 ! D45   D(8,6,7,34)          -160.363          estimate D2E/DX2                !
 ! D46   D(8,6,7,35)           -28.6056         estimate D2E/DX2                !
 ! D47   D(5,6,8,9)             -4.652          estimate D2E/DX2                !
 ! D48   D(5,6,8,36)           175.1072         estimate D2E/DX2                !
 ! D49   D(7,6,8,9)           -173.7859         estimate D2E/DX2                !
 ! D50   D(7,6,8,36)             5.9734         estimate D2E/DX2                !
 ! D51   D(6,8,9,10)             1.9999         estimate D2E/DX2                !
 ! D52   D(6,8,9,37)          -179.0702         estimate D2E/DX2                !
 ! D53   D(36,8,9,10)         -177.7627         estimate D2E/DX2                !
 ! D54   D(36,8,9,37)            1.1671         estimate D2E/DX2                !
 ! D55   D(8,9,10,4)             0.677          estimate D2E/DX2                !
 ! D56   D(8,9,10,11)          178.5463         estimate D2E/DX2                !
 ! D57   D(37,9,10,4)         -178.2005         estimate D2E/DX2                !
 ! D58   D(37,9,10,11)          -0.3312         estimate D2E/DX2                !
 ! D59   D(4,10,11,12)         167.109          estimate D2E/DX2                !
 ! D60   D(4,10,11,20)         -14.7338         estimate D2E/DX2                !
 ! D61   D(9,10,11,12)         -10.5896         estimate D2E/DX2                !
 ! D62   D(9,10,11,20)         167.5676         estimate D2E/DX2                !
 ! D63   D(10,11,12,13)        -86.5041         estimate D2E/DX2                !
 ! D64   D(10,11,12,19)         94.1652         estimate D2E/DX2                !
 ! D65   D(20,11,12,13)         95.1962         estimate D2E/DX2                !
 ! D66   D(20,11,12,19)        -84.1345         estimate D2E/DX2                !
 ! D67   D(10,11,20,21)          2.7123         estimate D2E/DX2                !
 ! D68   D(10,11,20,25)       -177.7997         estimate D2E/DX2                !
 ! D69   D(12,11,20,21)       -179.1026         estimate D2E/DX2                !
 ! D70   D(12,11,20,25)          0.3853         estimate D2E/DX2                !
 ! D71   D(11,12,13,14)          1.9133         estimate D2E/DX2                !
 ! D72   D(11,12,13,15)       -177.4697         estimate D2E/DX2                !
 ! D73   D(19,12,13,14)       -178.7651         estimate D2E/DX2                !
 ! D74   D(19,12,13,15)          1.852          estimate D2E/DX2                !
 ! D75   D(11,12,19,17)       -179.8664         estimate D2E/DX2                !
 ! D76   D(11,12,19,45)          0.0402         estimate D2E/DX2                !
 ! D77   D(13,12,19,17)          0.7896         estimate D2E/DX2                !
 ! D78   D(13,12,19,45)       -179.3038         estimate D2E/DX2                !
 ! D79   D(12,13,14,38)       -179.1319         estimate D2E/DX2                !
 ! D80   D(12,13,14,39)         61.6053         estimate D2E/DX2                !
 ! D81   D(12,13,14,40)        -59.8565         estimate D2E/DX2                !
 ! D82   D(15,13,14,38)          0.2459         estimate D2E/DX2                !
 ! D83   D(15,13,14,39)       -119.0169         estimate D2E/DX2                !
 ! D84   D(15,13,14,40)        119.5213         estimate D2E/DX2                !
 ! D85   D(12,13,15,16)         -0.9445         estimate D2E/DX2                !
 ! D86   D(12,13,15,41)        178.5769         estimate D2E/DX2                !
 ! D87   D(14,13,15,16)        179.6567         estimate D2E/DX2                !
 ! D88   D(14,13,15,41)         -0.8219         estimate D2E/DX2                !
 ! D89   D(13,15,16,17)         -2.6527         estimate D2E/DX2                !
 ! D90   D(13,15,16,42)        178.1645         estimate D2E/DX2                !
 ! D91   D(41,15,16,17)        177.8177         estimate D2E/DX2                !
 ! D92   D(41,15,16,42)         -1.365          estimate D2E/DX2                !
 ! D93   D(15,16,17,18)        174.4449         estimate D2E/DX2                !
 ! D94   D(15,16,17,19)          5.2241         estimate D2E/DX2                !
 ! D95   D(42,16,17,18)         -6.3833         estimate D2E/DX2                !
 ! D96   D(42,16,17,19)       -175.6041         estimate D2E/DX2                !
 ! D97   D(16,17,18,43)        158.0244         estimate D2E/DX2                !
 ! D98   D(16,17,18,44)         29.2133         estimate D2E/DX2                !
 ! D99   D(19,17,18,43)        -32.9439         estimate D2E/DX2                !
 ! D100  D(19,17,18,44)       -161.755          estimate D2E/DX2                !
 ! D101  D(16,17,19,12)         -4.3004         estimate D2E/DX2                !
 ! D102  D(16,17,19,45)        175.7929         estimate D2E/DX2                !
 ! D103  D(18,17,19,12)       -173.5309         estimate D2E/DX2                !
 ! D104  D(18,17,19,45)          6.5625         estimate D2E/DX2                !
 ! D105  D(11,20,21,2)          19.6397         estimate D2E/DX2                !
 ! D106  D(11,20,21,22)       -163.1538         estimate D2E/DX2                !
 ! D107  D(25,20,21,2)        -159.8738         estimate D2E/DX2                !
 ! D108  D(25,20,21,22)         17.3327         estimate D2E/DX2                !
 ! D109  D(11,20,25,24)        162.8608         estimate D2E/DX2                !
 ! D110  D(11,20,25,48)        -15.6459         estimate D2E/DX2                !
 ! D111  D(21,20,25,24)        -17.6041         estimate D2E/DX2                !
 ! D112  D(21,20,25,48)        163.8892         estimate D2E/DX2                !
 ! D113  D(2,21,22,23)         174.2471         estimate D2E/DX2                !
 ! D114  D(2,21,22,46)          -3.5154         estimate D2E/DX2                !
 ! D115  D(20,21,22,23)         -2.8636         estimate D2E/DX2                !
 ! D116  D(20,21,22,46)        179.374          estimate D2E/DX2                !
 ! D117  D(21,22,23,24)        -12.4451         estimate D2E/DX2                !
 ! D118  D(21,22,23,26)        169.4166         estimate D2E/DX2                !
 ! D119  D(46,22,23,24)        165.3977         estimate D2E/DX2                !
 ! D120  D(46,22,23,26)        -12.7405         estimate D2E/DX2                !
 ! D121  D(22,23,24,25)         12.3432         estimate D2E/DX2                !
 ! D122  D(22,23,24,47)       -167.1567         estimate D2E/DX2                !
 ! D123  D(26,23,24,25)       -169.5121         estimate D2E/DX2                !
 ! D124  D(26,23,24,47)         10.988          estimate D2E/DX2                !
 ! D125  D(22,23,26,49)         -1.7708         estimate D2E/DX2                !
 ! D126  D(22,23,26,50)        179.7607         estimate D2E/DX2                !
 ! D127  D(24,23,26,49)       -179.8569         estimate D2E/DX2                !
 ! D128  D(24,23,26,50)          1.6746         estimate D2E/DX2                !
 ! D129  D(23,24,25,20)          3.0282         estimate D2E/DX2                !
 ! D130  D(23,24,25,48)       -178.4331         estimate D2E/DX2                !
 ! D131  D(47,24,25,20)       -177.4684         estimate D2E/DX2                !
 ! D132  D(47,24,25,48)          1.0703         estimate D2E/DX2                !
 --------------------------------------------------------------------------------
 Trust Radius=3.00D-01 FncErr=1.00D-07 GrdErr=1.00D-06 EigMax=2.50D+02 EigMin=1.00D-04
 Number of steps in this run=    285 maximum allowed number of steps=    300.
 GradGradGradGradGradGradGradGradGradGradGradGradGradGradGradGradGradGrad

                          Input orientation:                          
 ---------------------------------------------------------------------
 Center     Atomic      Atomic             Coordinates (Angstroms)
 Number     Number       Type             X           Y           Z
 ---------------------------------------------------------------------
      1          6           0       -4.056094    1.367480    0.227081
      2         14           0       -2.443540    0.960349   -0.624531
      3          6           0       -2.562049    1.281405   -2.458452
      4          6           0       -1.026306    1.907188    0.126252
      5          6           0       -1.176505    3.287042    0.404177
      6          6           0       -0.156560    4.029573    0.995492
      7          7           0       -0.280733    5.411746    1.143874
      8          6           0        1.061076    3.402472    1.217474
      9          6           0        1.223431    2.038199    0.945562
     10          6           0        0.187464    1.250855    0.401121
     11          6           0        0.451187   -0.216699    0.102654
     12          6           0        1.867366   -0.720181    0.169603
     13          6           0        2.736330   -0.639301   -0.937235
     14          6           0        2.314902   -0.007996   -2.235817
     15          6           0        4.024670   -1.177108   -0.818840
     16          6           0        4.448394   -1.764214    0.377533
     17          6           0        3.620823   -1.780943    1.499707
     18          7           0        4.008419   -2.471683    2.654069
     19          6           0        2.317840   -1.297998    1.373535
     20          6           0       -0.523813   -1.141127   -0.193490
     21          6           0       -1.966449   -0.829772   -0.320935
     22          6           0       -2.902268   -1.799222   -0.278862
     23          6           0       -2.491863   -3.220375   -0.165419
     24          6           0       -1.069445   -3.550684   -0.382217
     25          6           0       -0.169117   -2.560171   -0.422278
     26          7           0       -3.350471   -4.141300    0.077601
     27          1           0       -4.306951    2.425429    0.104027
     28          1           0       -4.879865    0.780802   -0.190586
     29          1           0       -3.997784    1.155931    1.299152
     30          1           0       -3.353111    0.675075   -2.910064
     31          1           0       -1.620866    1.038563   -2.961386
     32          1           0       -2.789121    2.333473   -2.655840
     33          1           0       -2.103578    3.800283    0.152410
     34          1           0       -1.231445    5.742309    1.271421
     35          1           0        0.361193    5.819852    1.816960
     36          1           0        1.906973    3.966243    1.602760
     37          1           0        2.202640    1.615469    1.160224
     38          1           0        3.116796   -0.051830   -2.980642
     39          1           0        2.065757    1.047025   -2.085977
     40          1           0        1.450776   -0.532835   -2.655199
     41          1           0        4.712818   -1.152014   -1.661852
     42          1           0        5.444179   -2.198831    0.425329
     43          1           0        3.545505   -2.149912    3.499037
     44          1           0        5.016648   -2.519745    2.778184
     45          1           0        1.638166   -1.367233    2.219558
     46          1           0       -3.962423   -1.576125   -0.361744
     47          1           0       -0.752568   -4.579679   -0.516134
     48          1           0        0.867170   -2.832856   -0.609547
     49          1           0       -4.337436   -3.935091    0.228128
     50          1           0       -3.080159   -5.121836    0.154121
 ---------------------------------------------------------------------
                    Distance matrix (angstroms):
                    1          2          3          4          5
     1  C    0.000000
     2  Si   1.868510   0.000000
     3  C    3.074356   1.865580   0.000000
     4  C    3.079135   1.862453   3.070962   0.000000
     5  C    3.465273   2.842027   3.759915   1.415556   0.000000
     6  C    4.783677   4.156306   5.026781   2.452866   1.393303
     7  N    5.608026   5.255466   5.936403   3.724696   2.421555
     8  C    5.595311   4.651804   5.580178   2.789946   2.383599
     9  C    5.370239   4.132025   5.146835   2.397863   2.759058
    10  C    4.248727   2.838756   3.967103   1.406969   2.450812
    11  C    4.779194   3.208377   4.228850   2.587361   3.875113
    12  C    6.280845   4.694543   5.525643   3.908744   5.037659
    13  C    7.177732   5.430259   5.837467   4.666159   5.703142
    14  C    6.967596   5.116317   5.049432   4.517850   5.478756
    15  C    8.536254   6.814999   7.219243   5.993198   6.962515
    16  C    9.064020   7.478377   8.152601   6.596565   7.560118
    17  C    8.394475   6.985955   7.954426   6.089704   7.063924
    18  N    9.255584   8.009734   9.132064   7.135323   8.068976
    19  C    7.003297   5.635879   6.719431   4.797108   5.845742
    20  C    4.352816   2.878776   3.892701   3.105956   4.515739
    21  C    3.081372   1.877317   3.062807   2.928275   4.254169
    22  C    3.408122   2.818715   3.789014   4.173826   5.414322
    23  C    4.863053   4.206135   5.052618   5.340865   6.663414
    24  C    5.786161   4.721893   5.466965   5.481676   6.883631
    25  C    5.563875   4.196186   4.962845   4.581807   5.990640
    26  N    5.555800   5.228991   6.038121   6.479840   7.746809
    27  H    1.094224   2.479830   3.304508   3.321401   3.260699
    28  H    1.094182   2.481175   3.281173   4.027289   4.511082
    29  H    1.094299   2.480823   4.024508   3.281732   3.647222
    30  H    3.288660   2.476361   1.094244   4.018873   4.748071
    31  H    4.025523   2.478669   1.094412   3.262134   4.071870
    32  H    3.293872   2.476108   1.094245   3.321034   3.587969
    33  H    3.120325   2.963854   3.656712   2.178304   1.089158
    34  H    5.311160   5.284974   5.965076   4.007699   2.604509
    35  H    6.470222   6.119001   6.886363   4.482476   3.282621
    36  H    6.648626   5.737872   6.608627   3.876068   3.377240
    37  H    6.332772   5.020111   5.992384   3.402982   3.845047
    38  H    7.984628   6.123161   5.856575   5.536770   6.406052
    39  H    6.552099   4.741002   4.648684   3.898037   4.661632
    40  H    6.499566   4.638848   4.408280   4.452653   5.554624
    41  H    9.317174   7.533363   7.712313   6.744892   7.658839
    42  H   10.149536   8.561468   9.193906   7.669159   8.598180
    43  H    8.992334   7.908616   9.196077   6.981203   7.838113
    44  H   10.194768   8.907521   9.965327   7.946557   8.815318
    45  H    6.623686   5.492431   6.822086   4.712024   5.734130
    46  H    3.003381   2.968125   3.810867   4.581746   5.656710
    47  H    6.843563   5.793363   6.434215   6.524342   7.931708
    48  H    6.525434   5.034821   5.666138   5.157001   6.531262
    49  H    5.310029   5.317819   6.130378   6.716114   7.885536
    50  H    6.562697   6.164783   6.935089   7.322995   8.625291
                    6          7          8          9         10
     6  C    0.000000
     7  N    1.395651   0.000000
     8  C    1.387504   2.417241   0.000000
     9  C    2.423311   3.699008   1.400548   0.000000
    10  C    2.862325   4.252518   2.461521   1.410516   0.000000
    11  C    4.381477   5.770550   3.835777   2.528126   1.520640
    12  C    5.228626   6.569937   4.329481   2.936907   2.600125
    13  C    5.822596   7.074522   4.877005   3.605939   3.443923
    14  C    5.731618   6.894436   5.012843   3.936927   3.614435
    15  C    6.919827   8.111827   5.822543   4.615003   4.701856
    16  C    7.426671   8.628229   6.234907   5.018106   5.219839
    17  C    6.948737   8.190454   5.787897   4.543172   4.710270
    18  N    7.897105   9.100878   6.727283   5.569039   5.790748
    19  C    5.886305   7.199028   4.868083   3.537104   3.461321
    20  C    5.318335   6.692368   5.014677   3.802423   2.565357
    21  C    5.349945   6.629016   5.426279   4.472651   3.080538
    22  C    6.567932   7.803505   6.708557   5.765970   4.394518
    23  C    7.704745   9.006490   7.641850   6.533781   5.243249
    24  C    7.758333   9.125579   7.446107   6.185135   5.024760
    25  C    6.740546   8.125070   6.305179   4.995517   3.915234
    26  N    8.820814  10.090636   8.813033   7.736934   6.457320
    27  H    4.538032   5.119551   5.568670   5.607428   4.654853
    28  H    5.854136   6.661715   6.644590   6.334202   5.123367
    29  H    4.806769   5.652658   5.535854   5.307025   4.281562
    30  H    6.060029   6.950538   6.630257   6.137483   4.881715
    31  H    5.171770   6.146043   5.499431   4.934931   3.823817
    32  H    4.810338   5.495962   5.565009   5.399801   4.401946
    33  H    2.134066   2.627276   3.362684   3.847469   3.436613
    34  H    2.040828   1.014590   3.276186   4.455674   4.789978
    35  H    2.036659   1.015709   2.587073   3.975386   4.786494
    36  H    2.151965   2.661976   1.087117   2.148602   3.431323
    37  H    3.379476   4.536423   2.121279   1.087948   2.184059
    38  H    6.571327   7.642349   5.812260   4.834059   4.659859
    39  H    4.830086   5.915129   4.179749   3.298813   3.123330
    40  H    6.060251   7.264237   5.534989   4.430281   3.757472
    41  H    7.590860   8.711521   6.509153   5.399249   5.523446
    42  H    8.395616   9.550487   7.156373   6.003147   6.287604
    43  H    7.626209   8.795770   6.496683   5.427019   5.695502
    44  H    8.534262   9.676868   7.290749   6.206597   6.571824
    45  H    5.817636   7.126979   4.907880   3.659513   3.502232
    46  H    6.910176   8.040651   7.246785   6.454880   5.078911
    47  H    8.761247  10.139371   8.367164   7.059564   5.976633
    48  H    7.121593   8.506799   6.500378   5.125667   4.261471
    49  H    9.027981  10.230288   9.163109   8.192566   6.884669
    50  H    9.643838  10.944074   9.536476   8.391267   7.165860
                   11         12         13         14         15
    11  C    0.000000
    12  C    1.504506   0.000000
    13  C    2.545946   1.409515   0.000000
    14  C    2.997572   2.548242   1.504148   0.000000
    15  C    3.813307   2.416560   1.401097   2.509572   0.000000
    16  C    4.295116   2.791943   2.434175   3.803378   1.398407
    17  C    3.800685   2.443155   2.832730   4.336232   2.429685
    18  N    4.924284   3.718124   4.227683   5.731382   3.706384
    19  C    2.503744   1.409344   2.438990   3.832953   2.781077
    20  C    1.375825   2.454948   3.381349   3.676056   4.591411
    21  C    2.529872   3.866623   4.746814   4.761518   6.021799
    22  C    3.727679   4.910688   5.794192   5.852950   6.975749
    23  C    4.213725   5.036476   5.881467   6.140921   6.860547
    24  C    3.696333   4.115958   4.823704   5.238346   5.636888
    25  C    2.480361   2.807694   3.520873   3.996607   4.433731
    26  N    5.464039   6.240059   7.095283   7.384616   7.998922
    27  H    5.442492   6.929744   7.751426   7.432722   9.123917
    28  H    5.431493   6.921547   7.783355   7.521293   9.138865
    29  H    4.807189   6.260644   7.319329   7.328079   8.619091
    30  H    4.934006   6.219684   6.534595   5.748702   7.888945
    31  H    3.906076   5.006399   5.088966   4.136666   6.432090
    32  H    4.961075   6.244261   6.505505   5.631158   7.882036
    33  H    4.760824   6.016916   6.657472   6.303140   7.954442
    34  H    6.301353   7.251235   7.832391   7.612050   8.937240
    35  H    6.275899   6.910454   7.412660   7.362459   8.326221
    36  H    4.676177   4.900824   5.324513   5.540366   6.066534
    37  H    2.746430   2.559101   3.125403   3.765811   3.877495
    38  H    4.079138   3.454246   2.159951   1.095317   2.600745
    39  H    2.998991   2.872284   2.147783   1.094347   3.223312
    40  H    2.950403   2.861495   2.148345   1.094555   3.226799
    41  H    4.706356   3.411349   2.166667   2.718127   1.088507
    42  H    5.381722   3.878839   3.408982   4.655516   2.146364
    43  H    4.984730   3.993171   4.755757   6.244257   4.451967
    44  H    5.771127   4.467785   4.747658   6.224830   3.965510
    45  H    2.685875   2.161833   3.420700   4.707001   3.868256
    46  H    4.641515   5.916199   6.788382   6.736170   8.010107
    47  H    4.568098   4.714872   5.279803   5.767752   5.872915
    48  H    2.743090   2.463912   2.900487   3.566583   3.571430
    49  H    6.064082   6.988464   7.890404   8.108434   8.867211
    50  H    6.044288   6.622145   7.423996   7.808318   8.184505
                   16         17         18         19         20
    16  C    0.000000
    17  C    1.394427   0.000000
    18  N    2.424192   1.399966   0.000000
    19  C    2.397632   1.395321   2.423915   0.000000
    20  C    5.043525   4.522642   5.515442   3.248871   0.000000
    21  C    6.520065   5.952905   6.873542   4.630939   1.481345
    22  C    7.379994   6.761239   7.537366   5.498287   2.469297
    23  C    7.112129   6.496887   7.124867   5.403439   2.863089
    24  C    5.849380   5.354646   6.013982   4.430683   2.477760
    25  C    4.753383   4.320285   5.188790   3.317073   1.480486
    26  N    8.158603   7.496173   7.973649   6.472523   4.130923
    27  H    9.709994   9.082460   9.981473   7.704765   5.207780
    28  H    9.685881   9.037772   9.882931   7.653420   4.761199
    29  H    8.984128   8.167535   8.893519   6.776017   4.424131
    30  H    8.810330   8.608941   9.749554   7.375766   4.322418
    31  H    7.472607   7.438163   8.691606   6.305907   3.689962
    32  H    8.852909   8.676656   9.873764   7.450133   4.823653
    33  H    8.598990   8.107654   9.107819   6.858028   5.199311
    34  H    9.455553   8.955219   9.840608   7.885035   7.073076
    35  H    8.734714   8.276348   9.096844   7.395194   7.299342
    36  H    6.387342   5.998171   6.853337   5.285224   5.934683
    37  H    4.132587   3.696229   4.711393   2.923536   4.106691
    38  H    3.997844   4.828810   6.196826   4.598926   4.712623
    39  H    4.432708   4.824185   6.214763   4.186992   3.882704
    40  H    4.438409   4.850786   6.203950   4.191416   3.213881
    41  H    2.145647   3.403448   4.567809   3.869212   5.438612
    42  H    1.087550   2.157208   2.665171   3.388892   6.092504
    43  H    3.272272   2.034486   1.015775   2.598207   5.586748
    44  H    2.580090   2.031910   1.016976   3.278608   6.436470
    45  H    3.383494   2.149482   2.650795   1.087430   3.247780
    46  H    8.445339   7.811055   8.569217   6.521522   3.470097
    47  H    5.981262   5.569837   6.095969   4.875211   3.461223
    48  H    3.865422   3.624648   4.544126   2.897040   2.229323
    49  H    9.051289   8.342131   8.813629   7.249752   4.746337
    50  H    8.246372   7.607583   7.970006   6.726596   4.743604
                   21         22         23         24         25
    21  C    0.000000
    22  C    1.348095   0.000000
    23  C    2.452596   1.483569   0.000000
    24  C    2.865613   2.537231   1.476272   0.000000
    25  C    2.496990   2.840727   2.428373   1.339146   0.000000
    26  N    3.611172   2.411075   1.282330   2.400696   3.587599
    27  H    4.031733   4.468491   5.936518   6.814089   6.500375
    28  H    3.331506   3.251954   4.659679   5.772157   5.779873
    29  H    3.270171   3.524658   4.854361   5.792616   5.606374
    30  H    3.300149   3.639867   4.842454   5.427908   5.176265
    31  H    3.253012   4.109860   5.168619   5.293144   4.637406
    32  H    4.016801   4.768857   6.093914   6.538345   5.983392
    33  H    4.656207   5.672597   7.038566   7.442578   6.672914
    34  H    6.802064   7.878434   9.164217   9.440365   8.539809
    35  H    7.362474   8.549441   9.684806   9.730882   8.690237
    36  H    6.457999   7.740147   8.609511   8.324865   7.141779
    37  H    5.055130   6.308024   6.868848   6.306726   5.056235
    38  H    5.789527   6.825110   7.030094   6.043046   4.861505
    39  H    4.785022   6.004004   6.532316   5.819899   4.557897
    40  H    4.149023   5.118565   5.382033   4.541517   3.423460
    41  H    6.820154   7.766664   7.643615   6.389495   5.229984
    42  H    7.572889   8.385628   8.023298   6.701264   5.688417
    43  H    6.834954   7.481262   7.143105   6.190643   5.416959
    44  H    7.824589   8.519032   8.095272   6.934803   6.093993
    45  H    4.442546   5.200409   5.116580   4.343714   3.415943
    46  H    2.131342   1.086541   2.214644   3.502660   3.919335
    47  H    3.946316   3.522563   2.235141   1.084977   2.104195
    48  H    3.482102   3.922552   3.410355   2.077844   1.087803
    49  H    3.945384   2.622724   2.017879   3.346648   4.437152
    50  H    4.459578   3.355425   2.015874   2.607517   3.920271
                   26         27         28         29         30
    26  N    0.000000
    27  H    6.636074   0.000000
    28  H    5.161207   1.766303   0.000000
    29  H    5.474656   1.770743   1.771470   0.000000
    30  H    5.667770   3.613626   3.120531   4.285361   0.000000
    31  H    6.249637   4.305253   4.285423   4.880132   1.770715
    32  H    7.050497   3.151052   3.586012   4.299934   1.770028
    33  H    8.039221   2.597579   4.116149   3.449004   4.550495
    34  H   10.178468   4.671535   6.329691   5.356143   6.903850
    35  H   10.771555   6.020616   7.542610   6.404762   7.912619
    36  H    9.782591   6.575192   7.708715   6.546463   7.672408
    37  H    8.071524   6.644272   7.258322   6.218982   6.951112
    38  H    8.240277   8.412135   8.510246   8.390028   6.510996
    39  H    7.806108   6.878047   7.204516   6.945322   5.493779
    40  H    6.598575   7.036766   6.919319   6.940867   4.959973
    41  H    8.773719   9.862690   9.895452   9.485185   8.363940
    42  H    9.013322  10.796830  10.763060  10.058264   9.837505
    43  H    7.951499   9.701593   9.653459   8.524630   9.830974
    44  H    8.940429  10.887394  10.846575   9.846732  10.612064
    45  H    6.096715   7.362348   7.273759   6.243191   7.442909
    46  H    2.673506   4.043275   2.534975   3.197492   3.454431
    47  H    2.700703   7.879706   6.773132   6.835489   6.332943
    48  H    4.469082   7.411496   6.801651   6.574293   5.950523
    49  H    1.019451   6.361803   4.765416   5.213536   5.663106
    50  H    1.019987   7.646484   6.180525   6.446975   6.562614
                   31         32         33         34         35
    31  H    0.000000
    32  H    1.770584   0.000000
    33  H    4.189967   3.241568   0.000000
    34  H    6.339836   5.428618   2.405051   0.000000
    35  H    7.044279   6.487315   3.595064   1.685266   0.000000
    36  H    6.469032   6.546365   4.267970   3.621306   2.423053
    37  H    5.651520   6.324203   4.932809   5.369926   4.636709
    38  H    4.861560   6.377697   7.204657   8.399957   8.067650
    39  H    3.789143   5.054654   5.474866   6.647508   6.396744
    40  H    3.463817   5.117856   6.268334   7.873379   7.845001
    41  H    6.826637   8.331609   8.618586   9.563997   8.924444
    42  H    8.477347   9.890531   9.645334  10.408723   9.595450
    43  H    8.865373   9.905087   8.860975   9.490452   8.745649
    44  H    9.468939  10.677657   9.875983  10.467594   9.599276
    45  H    6.576574   7.554177   6.706486   7.725232   7.310741
    46  H    4.367793   4.682357   5.711866   7.980285   8.839734
    47  H    6.188526   7.517816   8.514455  10.486568  10.716065
    48  H    5.168109   6.651821   7.307834   9.026388   9.000739
    49  H    6.503075   7.071736   8.051823  10.217030  10.943510
    50  H    7.055950   7.972591   8.975406  11.076811  11.590016
                   36         37         38         39         40
    36  H    0.000000
    37  H    2.410269   0.000000
    38  H    6.214189   4.556571   0.000000
    39  H    4.706785   3.298437   1.764253   0.000000
    40  H    6.211283   4.442743   1.764342   1.788344   0.000000
    41  H    6.687825   4.682314   2.344547   3.467360   3.465694
    42  H    7.204603   5.059301   4.650480   5.315634   5.311540
    43  H    6.609690   4.631569   6.824367   6.603215   6.699064
    44  H    7.288329   5.257036   6.547069   6.714884   6.795948
    45  H    5.375747   3.215171   5.564055   4.954705   4.949201
    46  H    8.308244   7.107085   7.700483   6.796533   5.970855
    47  H    9.197589   7.065641   6.445712   6.485921   5.080086
    48  H    7.225180   4.970227   4.291505   4.320872   3.132951
    49  H   10.164316   8.628447   8.996749   8.436673   7.307005
    50  H   10.467244   8.620411   8.598485   8.339864   7.034243
                   41         42         43         44         45
    41  H    0.000000
    42  H    2.446842   0.000000
    43  H    5.384533   3.613176   0.000000
    44  H    4.655847   2.412819   1.679485   0.000000
    45  H    4.956323   4.289120   2.426437   3.613100   0.000000
    46  H    8.782366   9.459990   8.461906   9.558938   6.170361
    47  H    6.552252   6.704809   6.363867   6.955553   4.849684
    48  H    4.326844   4.735184   4.951804   5.365904   3.278158
    49  H    9.655290   9.936472   8.719316   9.798208   6.802022
    50  H    8.932398   9.015645   7.995013   8.900274   6.373827
                   46         47         48         49         50
    46  H    0.000000
    47  H    4.398676   0.000000
    48  H    4.996574   2.384045   0.000000
    49  H    2.460346   3.717620   5.385587   0.000000
    50  H    3.690064   2.482107   4.626448   1.730487   0.000000
 Stoichiometry    C22H24N3Si(1+)
 Framework group  C1[X(C22H24N3Si)]
 Deg. of freedom   144
 Full point group                 C1      NOp   1
 Largest Abelian subgroup         C1      NOp   1
 Largest concise Abelian subgroup C1      NOp   1
                         Standard orientation:                         
 ---------------------------------------------------------------------
 Center     Atomic      Atomic             Coordinates (Angstroms)
 Number     Number       Type             X           Y           Z
 ---------------------------------------------------------------------
      1          6           0       -4.098420    1.030239   -0.787741
      2         14           0       -2.639982    0.630209    0.309648
      3          6           0       -3.116795    0.732043    2.110389
      4          6           0       -1.928877   -1.042536   -0.096539
      5          6           0       -2.797603   -2.143042   -0.291478
      6          6           0       -2.314662   -3.405594   -0.629150
      7          7           0       -3.177422   -4.500818   -0.692177
      8          6           0       -0.939735   -3.586796   -0.672853
      9          6           0       -0.069151   -2.506710   -0.480413
     10          6           0       -0.534942   -1.206271   -0.195015
     11          6           0        0.473929   -0.091796    0.034055
     12          6           0        1.925292   -0.457070    0.187865
     13          6           0        2.472030   -0.813254    1.437242
     14          6           0        1.630583   -0.890571    2.681610
     15          6           0        3.843471   -1.089324    1.514744
     16          6           0        4.650852   -1.032826    0.374355
     17          6           0        4.103649   -0.754467   -0.877649
     18          7           0        4.935113   -0.586098   -1.991303
     19          6           0        2.750202   -0.423989   -0.954361
     20          6           0        0.162155    1.247558    0.076710
     21          6           0       -1.209453    1.795370   -0.037208
     22          6           0       -1.427065    3.094854   -0.322421
     23          6           0       -0.279295    4.023677   -0.466953
     24          6           0        1.049010    3.559116   -0.020673
     25          6           0        1.225903    2.261224    0.257710
     26          7           0       -0.439066    5.208204   -0.931429
     27          1           0       -4.912233    0.315473   -0.632355
     28          1           0       -4.489295    2.029357   -0.572765
     29          1           0       -3.815259    0.996318   -1.844225
     30          1           0       -3.473493    1.735173    2.363103
     31          1           0       -2.263270    0.503825    2.756261
     32          1           0       -3.915875    0.021443    2.342531
     33          1           0       -3.873537   -2.020926   -0.174353
     34          1           0       -4.128842   -4.277872   -0.965103
     35          1           0       -2.807497   -5.296200   -1.204219
     36          1           0       -0.521358   -4.573732   -0.853799
     37          1           0        0.994611   -2.725558   -0.544796
     38          1           0        2.231762   -1.167231    3.554401
     39          1           0        0.849454   -1.648776    2.569551
     40          1           0        1.171671    0.079815    2.895625
     41          1           0        4.301983   -1.344828    2.468333
     42          1           0        5.716766   -1.223418    0.475675
     43          1           0        4.466457   -0.738841   -2.879463
     44          1           0        5.802191   -1.114336   -1.933162
     45          1           0        2.323781   -0.137232   -1.912714
     46          1           0       -2.430644    3.500354   -0.417131
     47          1           0        1.872766    4.256495    0.090079
     48          1           0        2.208454    1.953987    0.609155
     49          1           0       -1.347800    5.549453   -1.242930
     50          1           0        0.342121    5.856317   -1.031771
 ---------------------------------------------------------------------
 Rotational constants (GHZ):           0.2119880           0.1780884           0.1141768
 Standard basis: def2SVP (5D, 7F)
 There are   514 symmetry adapted cartesian basis functions of A   symmetry.
 There are   488 symmetry adapted basis functions of A   symmetry.
   488 basis functions,   830 primitive gaussians,   514 cartesian basis functions
    95 alpha electrons       95 beta electrons
       nuclear repulsion energy      2409.6274368363 Hartrees.
 NAtoms=   50 NActive=   50 NUniq=   50 SFac= 1.00D+00 NAtFMM=   60 NAOKFM=F Big=F
 Integral buffers will be    131072 words long.
 Raffenetti 2 integral format.
 Two-electron integral symmetry is turned on.
 ------------------------------------------------------------------------------
 Polarizable Continuum Model (PCM)
 =================================
 Model                : PCM.
 Atomic radii         : SMD-Coulomb.
 Polarization charges : Total charges.
 Charge compensation  : None.
 Solution method      : On-the-fly selection.
 Cavity type          : VdW (van der Waals Surface) (Alpha=1.000).
 Cavity algorithm     : GePol (No added spheres)
                        Default sphere list used, NSphG=   50.
                        Lebedev-Laikov grids with approx.  5.0 points / Ang**2.
                        Smoothing algorithm: York/Karplus (Gamma=1.0000).
                        Polarization charges: spherical gaussians, with
                                              point-specific exponents (IZeta= 3).
                        Self-potential: point-specific (ISelfS= 7).
                        Self-field    : sphere-specific E.n sum rule (ISelfD= 2).
 1st derivatives      : Analytical E(r).r(x)/FMM algorithm (CHGder, D1EAlg=3).
                        Cavity 1st derivative terms included.
 Solvent              : Ethanol, Eps=  24.852000 Eps(inf)=   1.852593
 ------------------------------------------------------------------------------
 ------------------------------------------------------------------------------
 Atomic radii for non-electrostatic terms: SMD-CDS.
 ------------------------------------------------------------------------------
 Nuclear repulsion after PCM non-electrostatic terms =     2409.6279182540 Hartrees.
 One-electron integrals computed using PRISM.
   1 Symmetry operations used in ECPInt.
 ECPInt:  NShTT=   26565 NPrTT=   96561 LenC2=   23445 LenP2D=   57436.
 LDataN:  DoStor=T MaxTD1= 4 Len=   56
 NBasis=   488 RedAO= T EigKep=  2.24D-04  NBF=   488
 NBsUse=   488 1.00D-06 EigRej= -1.00D+00 NBFU=   488
 ExpMin= 7.80D-02 ExpMax= 6.90D+03 ExpMxC= 1.04D+03 IAcc=3 IRadAn=         5 AccDes= 0.00D+00
 Harris functional with IExCor= 1009 and IRadAn=       5 diagonalized for initial guess.
 HarFok:  IExCor= 1009 AccDes= 0.00D+00 IRadAn=         5 IDoV= 1 UseB2=F ITyADJ=14
 ICtDFT=  3500011 ScaDFX=  1.000000  1.000000  1.000000  1.000000
 FoFCou: FMM=F IPFlag=           0 FMFlag=      100000 FMFlg1=           0
         NFxFlg=           0 DoJE=T BraDBF=F KetDBF=T FulRan=T
         wScrn=  0.000000 ICntrl=       500 IOpCl=  0 I1Cent=   200000004 NGrid=           0
         NMat0=    1 NMatS0=      1 NMatT0=    0 NMatD0=    1 NMtDS0=    0 NMtDT0=    0
 Petite list used in FoFCou.
 Requested convergence on RMS density matrix=1.00D-08 within 128 cycles.
 Requested convergence on MAX density matrix=1.00D-06.
 Requested convergence on             energy=1.00D-06.
 No special actions if energy rises.
 Inv3:  Mode=1 IEnd=    40384683.
 Iteration    1 A*A^-1 deviation from unit magnitude is 1.15D-14 for    352.
 Iteration    1 A*A^-1 deviation from orthogonality  is 3.84D-15 for   1916    288.
 Iteration    1 A^-1*A deviation from unit magnitude is 1.07D-14 for    352.
 Iteration    1 A^-1*A deviation from orthogonality  is 3.88D-15 for   3109   2235.
 Error on total polarization charges =  0.04793
 SCF Done:  E(RM062X) =  -1305.16963775     A.U. after   14 cycles
            NFock= 14  Conv=0.60D-08     -V/T= 2.0094
 SMD-CDS (non-electrostatic) energy       (kcal/mol) =       0.30
 (included in total energy above)

 **********************************************************************

            Population analysis using the SCF density.

 **********************************************************************

 Orbital symmetries:
       Occupied  (A) (A) (A) (A) (A) (A) (A) (A) (A) (A) (A) (A)
                 (A) (A) (A) (A) (A) (A) (A) (A) (A) (A) (A) (A)
                 (A) (A) (A) (A) (A) (A) (A) (A) (A) (A) (A) (A)
                 (A) (A) (A) (A) (A) (A) (A) (A) (A) (A) (A) (A)
                 (A) (A) (A) (A) (A) (A) (A) (A) (A) (A) (A) (A)
                 (A) (A) (A) (A) (A) (A) (A) (A) (A) (A) (A) (A)
                 (A) (A) (A) (A) (A) (A) (A) (A) (A) (A) (A) (A)
                 (A) (A) (A) (A) (A) (A) (A) (A) (A) (A) (A)
       Virtual   (A) (A) (A) (A) (A) (A) (A) (A) (A) (A) (A) (A)
                 (A) (A) (A) (A) (A) (A) (A) (A) (A) (A) (A) (A)
                 (A) (A) (A) (A) (A) (A) (A) (A) (A) (A) (A) (A)
                 (A) (A) (A) (A) (A) (A) (A) (A) (A) (A) (A) (A)
                 (A) (A) (A) (A) (A) (A) (A) (A) (A) (A) (A) (A)
                 (A) (A) (A) (A) (A) (A) (A) (A) (A) (A) (A) (A)
                 (A) (A) (A) (A) (A) (A) (A) (A) (A) (A) (A) (A)
                 (A) (A) (A) (A) (A) (A) (A) (A) (A) (A) (A) (A)
                 (A) (A) (A) (A) (A) (A) (A) (A) (A) (A) (A) (A)
                 (A) (A) (A) (A) (A) (A) (A) (A) (A) (A) (A) (A)
                 (A) (A) (A) (A) (A) (A) (A) (A) (A) (A) (A) (A)
                 (A) (A) (A) (A) (A) (A) (A) (A) (A) (A) (A) (A)
                 (A) (A) (A) (A) (A) (A) (A) (A) (A) (A) (A) (A)
                 (A) (A) (A) (A) (A) (A) (A) (A) (A) (A) (A) (A)
                 (A) (A) (A) (A) (A) (A) (A) (A) (A) (A) (A) (A)
                 (A) (A) (A) (A) (A) (A) (A) (A) (A) (A) (A) (A)
                 (A) (A) (A) (A) (A) (A) (A) (A) (A) (A) (A) (A)
                 (A) (A) (A) (A) (A) (A) (A) (A) (A) (A) (A) (A)
                 (A) (A) (A) (A) (A) (A) (A) (A) (A) (A) (A) (A)
                 (A) (A) (A) (A) (A) (A) (A) (A) (A) (A) (A) (A)
                 (A) (A) (A) (A) (A) (A) (A) (A) (A) (A) (A) (A)
                 (A) (A) (A) (A) (A) (A) (A) (A) (A) (A) (A) (A)
                 (A) (A) (A) (A) (A) (A) (A) (A) (A) (A) (A) (A)
                 (A) (A) (A) (A) (A) (A) (A) (A) (A) (A) (A) (A)
                 (A) (A) (A) (A) (A) (A) (A) (A) (A) (A) (A) (A)
                 (A) (A) (A) (A) (A) (A) (A) (A) (A) (A) (A) (A)
                 (A) (A) (A) (A) (A) (A) (A) (A) (A) (A) (A) (A)
                 (A) (A) (A) (A) (A) (A) (A) (A) (A) (A) (A) (A)
                 (A) (A) (A) (A) (A) (A) (A) (A) (A) (A) (A) (A)
                 (A) (A) (A) (A) (A) (A) (A) (A) (A) (A) (A) (A)
                 (A) (A) (A) (A) (A) (A) (A) (A) (A) (A) (A) (A)
                 (A) (A) (A) (A) (A) (A) (A) (A) (A) (A) (A) (A)
                 (A) (A) (A) (A) (A) (A) (A) (A) (A)
 The electronic state is 1-A.
 Alpha  occ. eigenvalues --  -67.01254 -14.83327 -14.76587 -14.75461 -10.66450
 Alpha  occ. eigenvalues --  -10.61762 -10.60642 -10.59424 -10.59022 -10.58917
 Alpha  occ. eigenvalues --  -10.58502 -10.57944 -10.57869 -10.57576 -10.57545
 Alpha  occ. eigenvalues --  -10.57068 -10.56282 -10.56113 -10.55797 -10.55771
 Alpha  occ. eigenvalues --  -10.55684 -10.55608 -10.55022 -10.54377 -10.52992
 Alpha  occ. eigenvalues --  -10.52957  -5.54967  -3.86271  -3.86199  -3.86157
 Alpha  occ. eigenvalues --   -1.09007  -1.01947  -1.01000  -0.97709  -0.94496
 Alpha  occ. eigenvalues --   -0.93789  -0.89086  -0.86974  -0.84508  -0.84097
 Alpha  occ. eigenvalues --   -0.82847  -0.82322  -0.79124  -0.76750  -0.76179
 Alpha  occ. eigenvalues --   -0.74999  -0.72047  -0.70824  -0.69633  -0.68704
 Alpha  occ. eigenvalues --   -0.66538  -0.64258  -0.63659  -0.62957  -0.60053
 Alpha  occ. eigenvalues --   -0.58978  -0.58001  -0.57646  -0.56442  -0.54267
 Alpha  occ. eigenvalues --   -0.53477  -0.52091  -0.51795  -0.51438  -0.50842
 Alpha  occ. eigenvalues --   -0.50606  -0.50324  -0.49114  -0.48805  -0.48399
 Alpha  occ. eigenvalues --   -0.47732  -0.47600  -0.47581  -0.47105  -0.45745
 Alpha  occ. eigenvalues --   -0.45438  -0.45076  -0.44834  -0.44473  -0.44110
 Alpha  occ. eigenvalues --   -0.43145  -0.42777  -0.40971  -0.39780  -0.39351
 Alpha  occ. eigenvalues --   -0.37553  -0.36968  -0.36220  -0.35715  -0.33962
 Alpha  occ. eigenvalues --   -0.31868  -0.31222  -0.30756  -0.26164  -0.25638
 Alpha virt. eigenvalues --   -0.09027  -0.00162   0.00819   0.01479   0.02091
 Alpha virt. eigenvalues --    0.04269   0.06925   0.08571   0.09804   0.10270
 Alpha virt. eigenvalues --    0.11098   0.11347   0.11809   0.12015   0.12910
 Alpha virt. eigenvalues --    0.12957   0.13782   0.14127   0.14454   0.14931
 Alpha virt. eigenvalues --    0.15349   0.15975   0.16648   0.17139   0.17261
 Alpha virt. eigenvalues --    0.17660   0.17973   0.18597   0.19185   0.19774
 Alpha virt. eigenvalues --    0.20092   0.20896   0.21924   0.22125   0.22223
 Alpha virt. eigenvalues --    0.23075   0.23888   0.24027   0.25382   0.25672
 Alpha virt. eigenvalues --    0.27298   0.27562   0.28398   0.28727   0.30231
 Alpha virt. eigenvalues --    0.31541   0.31903   0.33189   0.33266   0.33862
 Alpha virt. eigenvalues --    0.34088   0.34537   0.35033   0.35049   0.36701
 Alpha virt. eigenvalues --    0.37830   0.38373   0.39351   0.40161   0.41379
 Alpha virt. eigenvalues --    0.41572   0.42675   0.42916   0.43897   0.44176
 Alpha virt. eigenvalues --    0.44678   0.44994   0.45133   0.45896   0.46967
 Alpha virt. eigenvalues --    0.47595   0.48209   0.48902   0.49576   0.49931
 Alpha virt. eigenvalues --    0.50817   0.51553   0.51991   0.52023   0.52382
 Alpha virt. eigenvalues --    0.53053   0.53497   0.53848   0.55342   0.55657
 Alpha virt. eigenvalues --    0.56007   0.56591   0.57262   0.57953   0.58598
 Alpha virt. eigenvalues --    0.59189   0.59677   0.60999   0.61296   0.62002
 Alpha virt. eigenvalues --    0.62526   0.62976   0.63666   0.64069   0.64437
 Alpha virt. eigenvalues --    0.65079   0.65449   0.66073   0.66735   0.67214
 Alpha virt. eigenvalues --    0.68385   0.68579   0.69297   0.69341   0.70092
 Alpha virt. eigenvalues --    0.70217   0.70851   0.70966   0.71502   0.71747
 Alpha virt. eigenvalues --    0.72034   0.72446   0.72815   0.73037   0.73343
 Alpha virt. eigenvalues --    0.74055   0.74172   0.74485   0.74993   0.75671
 Alpha virt. eigenvalues --    0.76119   0.76518   0.76795   0.77262   0.77430
 Alpha virt. eigenvalues --    0.78012   0.78327   0.78955   0.79421   0.79668
 Alpha virt. eigenvalues --    0.80120   0.80519   0.81053   0.81383   0.82128
 Alpha virt. eigenvalues --    0.82422   0.82982   0.83194   0.83937   0.84373
 Alpha virt. eigenvalues --    0.84820   0.85348   0.85466   0.86698   0.87506
 Alpha virt. eigenvalues --    0.87932   0.88946   0.89133   0.89817   0.90050
 Alpha virt. eigenvalues --    0.90362   0.91183   0.92028   0.93003   0.93599
 Alpha virt. eigenvalues --    0.94379   0.95123   0.95631   0.95767   0.96235
 Alpha virt. eigenvalues --    0.97353   0.97944   1.00407   1.00844   1.02247
 Alpha virt. eigenvalues --    1.03834   1.04978   1.07684   1.08487   1.08884
 Alpha virt. eigenvalues --    1.10384   1.10968   1.13451   1.15334   1.15819
 Alpha virt. eigenvalues --    1.18824   1.19784   1.20914   1.22088   1.23280
 Alpha virt. eigenvalues --    1.24295   1.24847   1.25666   1.28182   1.28794
 Alpha virt. eigenvalues --    1.29223   1.29577   1.30460   1.30674   1.31297
 Alpha virt. eigenvalues --    1.31808   1.32010   1.33450   1.34564   1.34850
 Alpha virt. eigenvalues --    1.35453   1.37211   1.38047   1.39264   1.39970
 Alpha virt. eigenvalues --    1.40620   1.42410   1.44908   1.46262   1.48385
 Alpha virt. eigenvalues --    1.49003   1.49807   1.50173   1.53939   1.55236
 Alpha virt. eigenvalues --    1.56260   1.57709   1.59119   1.59238   1.59736
 Alpha virt. eigenvalues --    1.60908   1.61049   1.63046   1.63713   1.65566
 Alpha virt. eigenvalues --    1.66097   1.66655   1.69901   1.71218   1.71949
 Alpha virt. eigenvalues --    1.72497   1.72904   1.73990   1.74759   1.75055
 Alpha virt. eigenvalues --    1.77096   1.77701   1.77844   1.78187   1.78624
 Alpha virt. eigenvalues --    1.79047   1.79446   1.79543   1.80223   1.80692
 Alpha virt. eigenvalues --    1.81198   1.81657   1.82198   1.82453   1.82624
 Alpha virt. eigenvalues --    1.83257   1.83861   1.85122   1.85255   1.85547
 Alpha virt. eigenvalues --    1.86681   1.86839   1.87489   1.87769   1.88816
 Alpha virt. eigenvalues --    1.89548   1.89881   1.90173   1.91307   1.92419
 Alpha virt. eigenvalues --    1.92951   1.93162   1.94216   1.94927   1.95791
 Alpha virt. eigenvalues --    1.96556   1.96862   1.97442   1.98326   1.98891
 Alpha virt. eigenvalues --    1.99423   1.99614   2.00482   2.01644   2.01982
 Alpha virt. eigenvalues --    2.03247   2.03910   2.04416   2.05076   2.06845
 Alpha virt. eigenvalues --    2.07390   2.09209   2.09453   2.10905   2.11502
 Alpha virt. eigenvalues --    2.13491   2.14909   2.15321   2.16041   2.16394
 Alpha virt. eigenvalues --    2.17433   2.18084   2.18195   2.18717   2.19423
 Alpha virt. eigenvalues --    2.20021   2.21406   2.22154   2.23408   2.24401
 Alpha virt. eigenvalues --    2.24767   2.25747   2.26589   2.28534   2.29170
 Alpha virt. eigenvalues --    2.29698   2.30193   2.31347   2.31910   2.32385
 Alpha virt. eigenvalues --    2.33320   2.33462   2.33884   2.35050   2.36655
 Alpha virt. eigenvalues --    2.37147   2.37895   2.38935   2.39699   2.41982
 Alpha virt. eigenvalues --    2.43662   2.45184   2.45973   2.46078   2.47365
 Alpha virt. eigenvalues --    2.48531   2.49191   2.50064   2.50541   2.51278
 Alpha virt. eigenvalues --    2.52852   2.54538   2.58071   2.58488   2.60653
 Alpha virt. eigenvalues --    2.61349   2.64087   2.64213   2.65199   2.65628
 Alpha virt. eigenvalues --    2.66574   2.67111   2.67540   2.69831   2.71049
 Alpha virt. eigenvalues --    2.71960   2.72962   2.74640   2.76075   2.77267
 Alpha virt. eigenvalues --    2.80408   2.81994   2.82147   2.83134   2.84015
 Alpha virt. eigenvalues --    2.85066   2.87608   2.88487   2.90164   2.90839
 Alpha virt. eigenvalues --    2.91565   2.92239   2.95454   2.95790   2.96218
 Alpha virt. eigenvalues --    2.96659   2.96880   2.97551   2.98637   3.01819
 Alpha virt. eigenvalues --    3.02330   3.04537   3.05273   3.06860   3.09489
 Alpha virt. eigenvalues --    3.10750   3.13783   3.16558   3.20630   3.20976
 Alpha virt. eigenvalues --    3.21569   3.23987   3.46810   3.46901   3.48158
 Alpha virt. eigenvalues --    3.55950   3.57474   3.59013
          Condensed to atoms (all electrons):
               1          2          3          4          5          6
     1  C    4.839963   0.458589  -0.049825  -0.031586  -0.005357   0.000236
     2  Si   0.458589  12.112128   0.489134   0.328073  -0.038989   0.003387
     3  C   -0.049825   0.489134   4.794685  -0.039642  -0.003967  -0.000076
     4  C   -0.031586   0.328073  -0.039642   5.593541   0.281808   0.133409
     5  C   -0.005357  -0.038989  -0.003967   0.281808   5.281519   0.196534
     6  C    0.000236   0.003387  -0.000076   0.133409   0.196534   5.174142
     7  N    0.000003  -0.000329   0.000001   0.008109  -0.104630   0.452168
     8  C   -0.000009   0.000446   0.000017  -0.142452   0.049183   0.147846
     9  C   -0.000080   0.010550  -0.000030   0.004970  -0.127113   0.137287
    10  C    0.000958  -0.027880   0.000001   0.222348   0.086310  -0.182356
    11  C    0.000504  -0.031905  -0.001199  -0.067891   0.010069   0.000606
    12  C    0.000003  -0.001708   0.000001   0.014821  -0.000233   0.000028
    13  C   -0.000000  -0.000145   0.000004  -0.000746   0.000028  -0.000033
    14  C   -0.000000   0.000382  -0.000115  -0.000558   0.000012  -0.000004
    15  C    0.000000   0.000007  -0.000000   0.000004  -0.000000   0.000000
    16  C    0.000000  -0.000000   0.000000  -0.000000   0.000000   0.000000
    17  C   -0.000000  -0.000003   0.000000   0.000026  -0.000000   0.000000
    18  N    0.000000  -0.000000   0.000000  -0.000000   0.000000  -0.000000
    19  C    0.000000   0.000148  -0.000000  -0.000513   0.000006  -0.000015
    20  C    0.001837  -0.024400  -0.000661  -0.047048  -0.000024  -0.000138
    21  C   -0.032821   0.316228  -0.033035  -0.006879   0.004099  -0.000107
    22  C   -0.004097  -0.037119  -0.004730   0.003906  -0.000121   0.000004
    23  C    0.000223   0.006508  -0.000153  -0.000100   0.000003  -0.000000
    24  C   -0.000005  -0.000337   0.000014   0.000008  -0.000000   0.000000
    25  C   -0.000082   0.006200   0.000071  -0.000353   0.000029  -0.000002
    26  N    0.000002  -0.000237   0.000001   0.000000  -0.000000   0.000000
    27  H    0.378526  -0.015853  -0.001217  -0.003990   0.002187   0.000032
    28  H    0.378113  -0.017190  -0.001666   0.003146  -0.000034   0.000011
    29  H    0.371433  -0.009046   0.003148  -0.002596   0.000769  -0.000067
    30  H   -0.002483  -0.016711   0.372028   0.003696  -0.000021   0.000008
    31  H    0.003375  -0.004517   0.366950  -0.002935  -0.000049   0.000017
    32  H   -0.002540  -0.015990   0.374901  -0.001280   0.001581  -0.000135
    33  H   -0.000607  -0.000874  -0.000862  -0.077871   0.460914  -0.075717
    34  H   -0.000005  -0.000034   0.000001   0.000280  -0.021627  -0.002799
    35  H   -0.000000   0.000030  -0.000000  -0.000615   0.011534  -0.003757
    36  H    0.000000   0.000014  -0.000000  -0.002160   0.016143  -0.086227
    37  H    0.000001  -0.000300   0.000002   0.016019  -0.002410   0.017010
    38  H    0.000000  -0.000018   0.000004   0.000017  -0.000001   0.000000
    39  H    0.000000   0.000098  -0.000005  -0.000826  -0.000003  -0.000042
    40  H    0.000000   0.000301  -0.000043  -0.000105   0.000002   0.000000
    41  H   -0.000000  -0.000000   0.000000  -0.000000   0.000000   0.000000
    42  H    0.000000  -0.000000  -0.000000   0.000000  -0.000000   0.000000
    43  H   -0.000000   0.000000   0.000000  -0.000000   0.000000   0.000000
    44  H   -0.000000  -0.000000   0.000000   0.000000   0.000000  -0.000000
    45  H   -0.000000   0.000017  -0.000000  -0.000175   0.000003  -0.000003
    46  H    0.001549  -0.005914  -0.000295   0.000207  -0.000018   0.000000
    47  H   -0.000000   0.000016   0.000000   0.000000   0.000000   0.000000
    48  H    0.000001  -0.000206   0.000002  -0.000019  -0.000001  -0.000000
    49  H   -0.000001  -0.000077   0.000001   0.000000  -0.000000   0.000000
    50  H   -0.000000   0.000021  -0.000000  -0.000000   0.000000  -0.000000
               7          8          9         10         11         12
     1  C    0.000003  -0.000009  -0.000080   0.000958   0.000504   0.000003
     2  Si  -0.000329   0.000446   0.010550  -0.027880  -0.031905  -0.001708
     3  C    0.000001   0.000017  -0.000030   0.000001  -0.001199   0.000001
     4  C    0.008109  -0.142452   0.004970   0.222348  -0.067891   0.014821
     5  C   -0.104630   0.049183  -0.127113   0.086310   0.010069  -0.000233
     6  C    0.452168   0.147846   0.137287  -0.182356   0.000606   0.000028
     7  N    6.207185  -0.103201   0.007305  -0.000236   0.000013  -0.000000
     8  C   -0.103201   5.295215   0.304828   0.103372   0.012266  -0.001223
     9  C    0.007305   0.304828   5.183616   0.239368  -0.083048  -0.023517
    10  C   -0.000236   0.103372   0.239368   5.333051   0.330895  -0.047822
    11  C    0.000013   0.012266  -0.083048   0.330895   5.381536   0.246796
    12  C   -0.000000  -0.001223  -0.023517  -0.047822   0.246796   5.601834
    13  C   -0.000000   0.000161  -0.000340  -0.007458  -0.054516   0.226508
    14  C   -0.000000  -0.000009  -0.000323  -0.000251  -0.005549  -0.097296
    15  C    0.000000  -0.000008  -0.000280  -0.000092   0.015113   0.061342
    16  C   -0.000000   0.000002   0.000039   0.000004  -0.001494  -0.153416
    17  C    0.000000  -0.000013  -0.000724   0.000294   0.010782   0.139050
    18  N    0.000000   0.000000   0.000001   0.000001  -0.000104   0.008570
    19  C   -0.000000   0.000174  -0.000743  -0.006895  -0.068468   0.285882
    20  C   -0.000000  -0.000356   0.013603  -0.018443   0.464765  -0.059869
    21  C    0.000000   0.000042  -0.001421  -0.035841  -0.072047   0.015964
    22  C   -0.000000  -0.000001   0.000075   0.000301   0.011951  -0.000466
    23  C    0.000000   0.000000  -0.000004  -0.000170   0.000192  -0.000093
    24  C    0.000000  -0.000000   0.000013  -0.000306   0.015083  -0.001982
    25  C    0.000000   0.000004  -0.000330   0.009476  -0.083417  -0.022599
    26  N   -0.000000   0.000000  -0.000000  -0.000000   0.000042  -0.000001
    27  H   -0.000002   0.000002  -0.000002  -0.000229  -0.000018   0.000000
    28  H   -0.000000  -0.000000   0.000003  -0.000035  -0.000008   0.000000
    29  H    0.000000  -0.000005   0.000010   0.000370  -0.000156  -0.000002
    30  H   -0.000000  -0.000000   0.000005  -0.000063  -0.000024   0.000000
    31  H    0.000000  -0.000007  -0.000037   0.000653   0.000476  -0.000021
    32  H   -0.000002   0.000006  -0.000011  -0.000280  -0.000011   0.000000
    33  H   -0.008223   0.016092  -0.002127   0.015674  -0.000258   0.000004
    34  H    0.360826   0.010772  -0.000595   0.000020  -0.000000   0.000000
    35  H    0.360033  -0.020932   0.000316  -0.000008  -0.000000  -0.000000
    36  H   -0.009730   0.465196  -0.059471   0.016794  -0.000268   0.000021
    37  H   -0.000097  -0.067847   0.458706  -0.066659  -0.028523   0.011423
    38  H    0.000000  -0.000006   0.000021   0.000035  -0.000301   0.011756
    39  H   -0.000000   0.000280   0.002091   0.002737   0.007177  -0.012984
    40  H   -0.000000   0.000012   0.000019  -0.001356   0.013626  -0.016340
    41  H   -0.000000  -0.000000  -0.000003  -0.000002  -0.000170   0.017976
    42  H   -0.000000  -0.000000  -0.000000   0.000001   0.000020  -0.002028
    43  H    0.000000   0.000000   0.000004  -0.000008   0.000003   0.000491
    44  H   -0.000000   0.000000   0.000001  -0.000000   0.000014  -0.000633
    45  H   -0.000000   0.000025   0.000646  -0.000405  -0.006619  -0.076359
    46  H   -0.000000  -0.000000   0.000001   0.000064  -0.000243   0.000007
    47  H    0.000000  -0.000000  -0.000000   0.000004  -0.000284   0.000077
    48  H   -0.000000  -0.000000  -0.000007   0.000174  -0.032206   0.008977
    49  H   -0.000000   0.000000  -0.000000  -0.000000  -0.000001   0.000000
    50  H    0.000000   0.000000  -0.000000   0.000000  -0.000000  -0.000000
              13         14         15         16         17         18
     1  C   -0.000000  -0.000000   0.000000   0.000000  -0.000000   0.000000
     2  Si  -0.000145   0.000382   0.000007  -0.000000  -0.000003  -0.000000
     3  C    0.000004  -0.000115  -0.000000   0.000000   0.000000   0.000000
     4  C   -0.000746  -0.000558   0.000004  -0.000000   0.000026  -0.000000
     5  C    0.000028   0.000012  -0.000000   0.000000  -0.000000   0.000000
     6  C   -0.000033  -0.000004   0.000000   0.000000   0.000000  -0.000000
     7  N   -0.000000  -0.000000   0.000000  -0.000000   0.000000   0.000000
     8  C    0.000161  -0.000009  -0.000008   0.000002  -0.000013   0.000000
     9  C   -0.000340  -0.000323  -0.000280   0.000039  -0.000724   0.000001
[...]
 000428,-0.00000299,0.00000041,-0.00000257,0.00000920,-0.00000466,0.000
 01895,0.00000578,-0.00000698,-0.00000014,-0.00003441,0.00001124,-0.000
 00498,0.00003199,0.00001463,0.00000802,-0.00000065,-0.00001442,-0.0000
 0673,-0.00000301,0.00000571,-0.00000120,-0.00000696,-0.00000445,0.0000
 0543,0.00000671,0.00000314,0.00000373,0.00000013,-0.00000349,-0.000000
 52,-0.00000874,0.00000367,0.00000209,-0.00000348,-0.00000022,-0.000001
 75,-0.00000380,-0.00000542,0.00000172,0.00000153,-0.00000352,-0.000003
 04,0.00000168,-0.00000047,-0.00000115,-0.00002027,-0.00012134,0.000031
 63,-0.08960861,0.33456238,0.00003408,-0.00004071,-0.00000579,0.0000442
 9,0.00004625,-0.00039091,-0.00002433,0.00003267,-0.00000147,-0.0000229
 6,0.00002335,0.00003742,-0.00001794,-0.00002878,0.00004778,-0.00000659
 ,0.00004469,-0.00000839,0.00000500,-0.00004043,-0.00000848,0.00000366,
 -0.00003626,0.00004504,0.00005571,0.00002687,-0.00014270,0.00002839,0.
 00001714,-0.00066714,0.00008319,-0.00036514,0.00064458,-0.00005059,-0.
 00004816,0.00029218,0.00003722,0.00009808,-0.00004067,0.00001328,-0.00
 000903,0.00001562,-0.00003742,0.00000004,-0.00000191,-0.00000679,0.000
 00210,0.00001391,0.00004322,-0.00001631,0.00002364,0.00000080,0.000020
 95,-0.00001707,-0.00003269,-0.00008542,-0.00002290,-0.00248390,-0.0015
 5653,0.00799369,0.00006530,0.00012277,-0.00097552,-0.00159440,-0.00052
 355,0.00430687,-0.00209048,0.00402386,0.00429842,0.00436999,-0.0270385
 6,-0.03922856,0.00226398,-0.00675932,0.00308896,0.00056890,0.00058939,
 -0.00179875,0.00002058,0.00000280,-0.00000598,0.00000888,-0.00000246,-
 0.00000451,-0.00000719,-0.00000310,0.00000938,-0.00000436,0.00000354,-
 0.00000295,0.00000372,0.00000051,0.00001139,-0.00001556,-0.00000092,-0
 .00000887,0.00000089,-0.00000177,-0.00000006,-0.00000513,0.00000087,0.
 00000313,0.00000476,0.00000255,-0.00000257,-0.00000450,-0.00000709,0.0
 0002644,-0.00000067,0.00000192,0.00000253,-0.00000066,-0.00000005,0.00
 000129,-0.00000568,-0.00000359,0.00000027,-0.00001163,-0.00001803,-0.0
 0000110,-0.00000454,0.00000096,-0.00000145,-0.00000089,0.00000074,-0.0
 0000010,-0.00000460,-0.00000562,0.00000077,-0.00000009,-0.00000220,-0.
 00000007,0.00000141,0.00000120,-0.00000336,0.00001736,0.00029039,-0.00
 032817,-0.00265817,0.03029523,0.02873961,-0.00001762,0.00001522,0.0000
 0804,0.00009315,-0.00030207,-0.00016055,-0.00004332,0.00010759,0.00002
 337,0.00006745,-0.00004564,0.00003005,0.00008411,0.00010381,0.00001652
 ,0.00000152,-0.00017261,-0.00001905,-0.00000493,0.00017036,0.00001912,
 -0.00003109,0.00009332,0.00002974,-0.00014612,-0.00022580,-0.00009611,
 -0.00000866,0.00036395,0.00007539,-0.00105232,-0.00070238,0.00023835,-
 0.00199073,-0.00394235,-0.00128429,-0.00054679,-0.00172681,-0.00022420
 ,-0.00014087,0.00017717,-0.00031232,0.00018491,0.00012750,0.00002636,-
 0.00008541,0.00040810,0.00011401,0.00031861,-0.00008229,-0.00023731,-0
 .00000636,-0.00008332,0.00018097,-0.00071684,-0.00139196,-0.00015076,-
 0.00298680,0.00039055,-0.00133667,0.00103522,0.00137417,-0.00044603,0.
 00048071,-0.00056486,0.00019119,-0.00026509,-0.00207293,-0.00224297,-0
 .01202460,0.00669476,-0.00262158,-0.32521269,0.07651292,-0.04049208,-0
 .00061302,0.00036891,0.00002411,-0.00000464,-0.00000327,0.00000630,-0.
 00000282,-0.00000118,0.00000324,-0.00000175,-0.00000004,0.00000202,-0.
 00000115,-0.00000244,-0.00000045,0.00000439,-0.00000324,0.00000333,-0.
 00001462,0.00000435,-0.00003682,-0.00000354,0.00000394,0.00000188,0.00
 001761,-0.00000584,-0.00000196,-0.00001649,-0.00000626,-0.00000115,0.0
 0000028,0.00000725,0.00000058,0.00006778,-0.00002245,-0.00001068,0.000
 00537,0.00001739,0.00000170,0.00005346,0.00002996,-0.00002354,0.000190
 72,0.00023559,-0.00005605,0.00000342,0.00001339,-0.00000107,0.00000089
 ,-0.00000389,0.00000714,0.00002254,0.00001150,0.00000065,-0.00001042,0
 .00002250,0.00000375,0.00006297,0.00018748,0.00007140,-0.00009869,-0.0
 0002349,0.00011248,0.00081942,0.00020375,0.00127766,0.34259965,0.00009
 406,-0.00038512,-0.00006320,0.00044199,0.00095024,0.00013056,0.0000622
 2,-0.00033254,0.00000041,0.00008616,-0.00008390,0.00001763,-0.00005881
 ,0.00006148,-0.00001384,0.00005407,-0.00010343,0.00000116,-0.00002658,
 0.00008524,0.00000485,-0.00008369,0.00008318,0.00001367,-0.00002684,-0
 .00004951,-0.00005581,-0.00011348,0.00020903,0.00004046,0.00071886,0.0
 0082996,0.00068923,-0.00162996,-0.00283229,-0.00073778,-0.00052562,-0.
 00064162,0.00031663,-0.00004549,0.00000690,0.00001648,-0.00036980,0.00
 021235,-0.00027237,0.00004462,-0.00016651,0.00038155,-0.00004162,0.000
 11408,-0.00061100,0.00009086,-0.00026542,0.00043944,-0.00050916,-0.000
 04004,-0.00061656,0.02583478,-0.00099833,0.00399767,0.00131575,-0.0056
 5009,-0.00130026,-0.00055418,0.00001536,0.00005095,-0.00274971,-0.0033
 2611,-0.00251270,-0.02237716,0.00881487,-0.00394890,0.07715847,-0.0770
 5542,0.00925847,-0.00085979,0.00092176,0.00005376,0.00008022,0.0000047
 5,-0.00010433,-0.00001292,0.00001219,0.00002187,-0.00000621,0.00000693
 ,-0.00000011,-0.00000569,0.00001863,-0.00002091,-0.00000292,0.00000326
 ,0.00000546,0.00003596,-0.00002314,0.00010274,0.00000002,0.00000940,0.
 00000207,0.00001177,-0.00000123,-0.00000150,-0.00000819,-0.00000775,-0
 .00000005,-0.00000152,0.00000417,-0.00000064,-0.00003314,-0.00000605,-
 0.00002303,0.00002032,0.00004178,-0.00006021,0.00000929,0.00004610,-0.
 00006574,0.00002613,0.00003846,0.00000539,0.00003639,-0.00001350,-0.00
 003062,0.00003475,0.00000693,0.00002269,0.00004964,0.00003454,-0.00002
 237,-0.00002889,0.00005443,0.00001607,0.00002143,0.00004306,0.00006351
 ,0.00000734,0.00012021,0.00012657,0.00012382,0.00077486,0.00101604,-0.
 07615256,0.07866997,-0.00004993,0.00020946,-0.00004313,-0.00003643,-0.
 00001302,0.00070449,0.00008116,-0.00028089,-0.00008378,0.00007657,-0.0
 0004832,-0.00009154,0.00001303,0.00005224,0.00007233,0.00000818,-0.000
 08805,-0.00002977,-0.00000856,0.00008559,0.00001710,-0.00001617,0.0000
 6602,-0.00010735,-0.00010034,-0.00011249,0.00020522,0.00000857,0.00022
 131,-0.00019907,0.00035628,0.00030632,-0.00261230,-0.00085437,-0.00126
 175,0.00086898,0.00018466,0.00035830,-0.00012485,-0.00005516,-0.000031
 67,-0.00005052,0.00002895,-0.00014128,-0.00003469,-0.00004152,0.000055
 27,0.00020130,0.00004466,0.00023062,-0.00013779,0.00002814,-0.00009145
 ,0.00006368,-0.00046790,-0.00098620,-0.00079141,0.00264460,-0.00054954
 ,0.00434675,-0.00043522,-0.00127185,0.00415507,0.00016551,0.00002752,-
 0.00096751,-0.00233844,-0.00236972,0.00916315,-0.00689814,0.00149143,0
 .00665199,-0.04079807,0.00902997,-0.04901863,-0.00013889,0.00030264,-0
 .00045947,-0.00004523,-0.00000357,0.00005194,0.00000166,-0.00000144,-0
 .00000455,0.00001795,-0.00000552,-0.00001309,-0.00000238,0.00000824,-0
 .00001260,-0.00001423,0.00001062,-0.00001582,0.00003822,-0.00001876,0.
 00008793,0.00000051,0.00000372,-0.00000781,0.00000571,-0.00000541,0.00
 002162,-0.00000587,-0.00000237,-0.00001513,-0.00000015,0.00000245,0.00
 000282,-0.00000927,-0.00001305,0.00008950,-0.00000830,-0.00000536,-0.0
 0000629,-0.00002063,-0.00002319,-0.00000135,-0.00001798,0.00001950,-0.
 00009094,0.00000086,0.00000265,-0.00001686,0.00001240,0.00000308,-0.00
 001398,-0.00000242,-0.00000346,-0.00000964,-0.00000759,0.00001471,0.00
 001050,0.00002606,0.00002351,-0.00001806,0.00011110,0.00011454,-0.0006
 4831,0.00124096,0.00102115,-0.00540534,0.04723413,-0.00634323,0.034743
 09,-0.00009354,0.00006095,-0.00002776,0.00043397,-0.00010754,0.0000155
 0,-0.00010920,0.00007452,0.00002229,0.00081704,-0.00107585,0.00003628,
 0.00068745,0.00104228,0.00023777,0.00014599,-0.00167952,-0.00020315,-0
 .00013121,0.00167095,0.00019301,-0.00081160,0.00102376,-0.00001041,-0.
 00083227,-0.00129343,-0.00031130,-0.00021889,0.00285906,0.00032207,-0.
 00204551,-0.00427378,-0.00094117,-0.00013600,-0.00000640,-0.00000665,0
 .00010081,-0.00001302,0.00010343,0.00000470,-0.00003437,-0.00000009,-0
 .00001265,0.00002450,-0.00008476,0.00002183,-0.00001376,0.00005806,-0.
 00001790,0.00003439,-0.00005359,0.00003791,-0.00005993,0.00008052,0.00
 013018,-0.00001746,-0.00007930,0.00374370,0.00340910,0.00120996,-0.002
 97211,-0.00106967,-0.00065839,0.00188027,0.00572800,0.00183293,-0.0210
 8293,-0.00124854,-0.00345496,0.00517708,-0.00174785,-0.00042688,-0.001
 54322,-0.00225516,-0.00090819,-0.42477776,0.09576917,-0.06094595,-0.00
 002691,-0.00000066,0.00003502,-0.00002104,0.00000232,0.00002438,0.0000
 1184,-0.00000282,-0.00000359,-0.00001036,0.00000654,-0.00002844,0.0000
 1027,-0.00000754,0.00000871,-0.00001844,0.00001069,-0.00004390,-0.0000
 2702,0.00002006,0.00000134,0.00017749,-0.00005535,0.00002096,-0.000163
 86,-0.00007571,-0.00003593,0.00001476,0.00002981,0.00000781,0.00000731
 ,-0.00001976,-0.00000047,0.00001477,0.00000557,-0.00000975,-0.00001724
 ,-0.00000068,0.00000416,0.00001039,0.00001116,0.00000126,0.00002016,-0
 .00001389,-0.00000159,0.00000679,-0.00000356,0.00000287,0.00000864,0.0
 0000965,-0.00000790,-0.00000717,0.00000621,0.00000580,-0.00001011,0.00
 000374,-0.00000167,-0.00015574,-0.00104157,-0.00019210,0.00008505,0.00
 004056,0.00012000,-0.00007864,-0.00019781,0.00009204,0.44124507,0.0000
 2647,0.00000371,0.00002127,-0.00015362,-0.00017806,-0.00009030,0.00002
 319,0.00002824,0.00000042,-0.00038097,0.00051796,0.00000801,-0.0002635
 0,-0.00043666,-0.00011302,-0.00008549,0.00072687,0.00007354,0.00006304
 ,-0.00071549,-0.00007732,0.00036011,-0.00045443,0.00000786,0.00037579,
 0.00056957,0.00013793,0.00005861,-0.00127517,-0.00014024,0.00100106,0.
 00177414,0.00042860,0.00004083,-0.00000782,-0.00000684,-0.00004076,-0.
 00001823,-0.00005421,0.00000079,0.00001738,-0.00000229,0.00001405,-0.0
 0000922,0.00003486,-0.00001159,0.00001020,-0.00002518,0.00001023,-0.00
 001924,0.00002672,-0.00001635,0.00002426,-0.00003428,-0.00005008,-0.00
 000170,0.00004577,-0.00142639,-0.00140496,-0.00048650,0.00133694,0.000
 54042,0.00038531,-0.00240266,-0.00057526,0.00005014,-0.02457162,0.0128
 2514,-0.00209667,-0.00314326,-0.00390653,-0.00205774,-0.00055320,0.002
 14161,-0.00003737,0.09540131,-0.09293688,0.00412985,0.00000510,0.00000
 298,-0.00000459,0.00001547,-0.00000315,-0.00001684,-0.00000422,0.00000
 196,0.00000302,0.00001137,-0.00001067,0.00001744,-0.00000269,-0.000000
 30,-0.00000018,0.00000097,0.00000263,0.00000162,0.00001050,-0.00000985
 ,0.00000253,-0.00007608,0.00002357,-0.00001155,0.00006945,0.00003311,0
 .00001815,-0.00000533,-0.00001296,-0.00000410,-0.00000029,0.00000982,-
 0.00000397,-0.00000583,-0.00000264,0.00000497,0.00000717,-0.00000076,-
 0.00000154,-0.00000371,0.00000005,0.00000019,-0.00000838,0.00000541,0.
 00000121,-0.00000299,0.00000130,-0.00000135,-0.00000347,-0.00000351,0.
 00000326,0.00000315,-0.00000270,-0.00000253,0.00000445,0.00000103,0.00
 000100,0.00111100,-0.00017397,0.00023485,-0.00016478,0.00008265,0.0000
 6944,-0.00015436,-0.00024453,0.00005060,-0.09226197,0.08122253,-0.0000
 3201,0.00008562,-0.00002354,0.00000606,-0.00007733,0.00023318,0.000013
 69,-0.00004756,-0.00002879,0.00011139,-0.00010937,-0.00007944,0.000068
 25,0.00011132,0.00010406,0.00000715,-0.00019865,0.00001855,-0.00001136
 ,0.00019568,0.00000440,-0.00009010,0.00011839,-0.00001470,-0.00009723,
 -0.00014980,-0.00003214,-0.00002226,0.00033931,-0.00001345,-0.00020854
 ,-0.00049350,-0.00015031,-0.00001444,0.00000518,0.00000929,0.00001371,
 0.00004342,0.00001533,-0.00000588,-0.00001020,-0.00000460,-0.00000387,
 -0.00001555,-0.00000762,0.00000509,-0.00000024,-0.00000218,0.00000029,
 0.00001772,0.00000979,0.00000733,0.00000018,-0.00000054,0.00001781,-0.
 00004882,-0.00002729,0.00046446,0.00039689,0.00020429,-0.00028445,-0.0
 0006871,-0.00043030,0.00064408,0.00143740,-0.00324576,-0.00692876,0.00
 211022,-0.00381653,-0.00067222,-0.00180401,0.00582141,-0.00066790,-0.0
 0034271,0.00151881,-0.06091444,0.00431523,-0.01631997,-0.00001831,-0.0
 0000024,0.00001736,0.00000308,-0.00000977,0.00000522,0.00000570,-0.000
 00762,-0.00001190,-0.00000621,0.00000716,0.00000269,0.00000112,0.00000
 871,-0.00000907,0.00000682,-0.00000062,0.00000727,-0.00000067,0.000004
 04,-0.00001387,0.00001866,-0.00000776,0.00001310,-0.00001686,-0.000007
 12,-0.00001569,0.00000110,0.00000304,0.00000474,-0.00000261,-0.0000045
 1,0.00002101,0.00000203,0.00000113,-0.00000180,-0.00000256,-0.00000093
 ,0.00000182,0.00000345,-0.00000489,-0.00000485,0.00000262,-0.00000130,
 -0.00000067,0.00000091,-0.00000006,-0.00000018,-0.00000230,-0.00000174
 ,-0.00000022,-0.00000108,0.00000007,0.00000093,-0.00000234,-0.00000446
 ,-0.00000314,0.00013177,-0.00020172,0.00006864,0.00009187,0.00010570,-
 0.00054571,0.00010452,0.00004540,-0.00075608,0.06379334,-0.00588050,0.
 01996909,0.00005116,-0.00003919,0.00000977,-0.00036717,0.00017834,0.00
 004240,0.00006747,-0.00008530,-0.00001453,-0.00034789,0.00040766,-0.00
 004842,-0.00036797,-0.00050141,-0.00009894,-0.00005520,0.00078060,0.00
 010891,0.00005462,-0.00078486,-0.00009557,0.00037278,-0.00047644,0.000
 00640,0.00038797,0.00061054,0.00014074,0.00012210,-0.00133502,-0.00015
 997,0.00092832,0.00208392,0.00047879,0.00005996,0.00000192,-0.00000381
 ,-0.00004467,0.00000968,-0.00004780,-0.00000604,0.00001569,0.00000189,
 0.00000427,-0.00001045,0.00004117,-0.00001113,0.00000834,-0.00002621,0
 .00000465,-0.00001662,0.00001894,-0.00001519,0.00003046,-0.00003225,-0
 .00005818,0.00001168,0.00003924,-0.00151172,-0.00147463,-0.00053625,0.
 00194272,-0.00061153,0.00009054,-0.00338094,-0.00346538,-0.00224105,0.
 01384993,-0.02288614,-0.00042390,-0.00085297,-0.00234263,0.00012742,0.
 00039092,0.00147536,0.00038925,-0.10291172,0.11271410,-0.00073035,0.00
 001682,-0.00000022,-0.00002181,0.00000882,0.00000156,-0.00001093,-0.00
 000444,0.00000196,0.00000073,0.00000590,-0.00000169,0.00001116,-0.0000
 0682,0.00000329,-0.00000481,0.00001785,-0.00000706,0.00003788,0.000013
 82,-0.00000827,-0.00000486,-0.00008360,0.00002671,-0.00000848,0.000078
 96,0.00003528,0.00001344,-0.00000759,-0.00001380,-0.00000342,-0.000006
 06,0.00000742,0.00000024,-0.00000779,-0.00000386,0.00000450,0.00000838
 ,0.00000224,-0.00000139,-0.00000383,-0.00000811,-0.00000044,-0.0000101
 1,0.00000560,0.00000044,-0.00000366,0.00000058,-0.00000167,-0.00000384
 ,-0.00000621,0.00000271,0.00000233,-0.00000360,-0.00000317,0.00000458,
 -0.00000361,0.00000096,0.00009225,-0.00019819,0.00010351,-0.00033045,0
 .00107428,0.00001950,0.00001181,0.00006279,-0.00004870,0.00052786,0.02
 584257,0.00448007,0.09137272,-0.00007413,0.00004021,-0.00003779,0.0002
 1202,0.00004837,0.00010620,-0.00007117,-0.00000962,0.00001141,0.000858
 53,-0.00113954,-0.00000691,0.00062424,0.00100335,0.00025960,0.00015871
 ,-0.00165078,-0.00017661,-0.00013351,0.00163177,0.00018017,-0.00080187
 ,0.00101035,-0.00001172,-0.00082506,-0.00126952,-0.00031001,-0.0001820
 5,0.00282957,0.00030372,-0.00207035,-0.00411439,-0.00091336,-0.0001315
 6,-0.00000233,-0.00000572,0.00009774,0.00000479,0.00010614,0.00000125,
 -0.00003751,0.00000070,-0.00001772,0.00002097,-0.00008392,0.00002258,-
 0.00001821,0.00005796,-0.00001948,0.00004213,-0.00005684,0.00003778,-0
 .00006481,0.00008258,0.00012458,-0.00002208,-0.00008674,0.00342332,0.0
 0364659,0.00117447,-0.00197116,-0.00170052,-0.00077912,-0.00233978,0.0
 0475652,-0.00065206,0.00085382,-0.02255512,-0.00280045,0.00552865,0.00
 237133,0.00189371,-0.00100098,-0.00320147,-0.00056543,0.11278784,-0.41
 721043,-0.04091128,-0.00001931,-0.00000089,0.00002475,-0.00001834,-0.0
 0000177,0.00001850,0.00001143,-0.00000216,-0.00000398,-0.00001031,0.00
 000408,-0.00002403,0.00000743,-0.00000331,0.00000333,-0.00000402,0.000
 00620,-0.00001596,-0.00002504,0.00002010,-0.00000581,0.00017181,-0.000
 05365,0.00002385,-0.00015891,-0.00007432,-0.00004101,0.00001352,0.0000
 2926,0.00000868,0.00000422,-0.00002008,0.00000466,0.00001472,0.0000062
 2,-0.00001005,-0.00001739,-0.00000164,0.00000432,0.00000799,0.00000883
 ,0.00000069,0.00002029,-0.00001235,-0.00000189,0.00000750,-0.00000262,
 0.00000326,0.00000898,0.00001130,-0.00000744,-0.00000671,0.00000841,0.
 00000629,-0.00001069,0.00000282,-0.00000168,0.00003450,0.00010209,0.00
 010781,-0.00079680,-0.00016873,-0.00014133,0.00004661,0.00003239,-0.00
 003989,-0.00326538,0.00183816,0.00014789,-0.11110835,0.43386204,0.0000
 3736,-0.00014877,0.00000475,0.00004982,0.00010740,-0.00041599,-0.00004
 389,0.00011871,0.00003118,0.00002372,-0.00010713,0.00015303,0.00005716
 ,0.00007971,-0.00013955,0.00002245,-0.00008931,-0.00009097,-0.00001350
 ,0.00009287,0.00003762,-0.00004706,0.00005839,-0.00000729,-0.00004911,
 -0.00007347,0.00000588,-0.00002335,0.00014412,0.00010951,-0.00009908,-
 0.00018934,-0.00019350,-0.00001873,-0.00000852,0.00003310,0.00000575,-
 0.00003289,0.00000217,0.00000745,0.00000519,0.00000596,-0.00000297,0.0
 0001499,-0.00000953,0.00000186,-0.00000158,0.00000755,0.00000452,-0.00
 001510,0.00000242,0.00000251,0.00000667,-0.00000671,0.00000205,0.00003
 291,0.00000245,0.00017147,0.00023297,0.00020866,-0.00009306,-0.0004886
 4,0.00093837,-0.00209214,-0.00086797,0.00574888,0.00310614,-0.00702612
 ,-0.00298051,0.00119302,0.00044472,-0.00317393,0.00002684,-0.00011296,
 -0.00058927,-0.00073341,-0.04092742,-0.01176421,0.00003631,0.00000900,
 -0.00003046,0.00000193,-0.00000179,0.00000452,-0.00001014,-0.00000031,
 0.00000727,-0.00000429,0.00000079,0.00000179,0.00000785,-0.00000218,0.
 00001049,-0.00002174,0.00000013,-0.00003413,-0.00000653,-0.00000248,0.
 00002932,0.00001202,-0.00000161,-0.00001004,-0.00001351,-0.00000791,0.
 00002318,0.00000136,0.00000213,-0.00000313,0.00000179,-0.00000004,-0.0
 0001332,0.00000157,0.00000057,-0.00000182,-0.00000040,0.00000118,-0.00
 000197,-0.00000466,0.00000143,0.00000208,0.00000240,-0.00000039,-0.000
 00013,0.00000022,-0.00000059,0.00000005,-0.00000318,-0.00000321,-0.000
 00007,-0.00000128,-0.00000154,-0.00000021,-0.00000058,-0.00000047,-0.0
 0000197,0.00013361,0.00006425,-0.00055349,-0.00018277,0.00017826,0.000
 01758,-0.00005237,-0.00003556,0.00033017,0.00020839,0.00539055,-0.0024
 9064,-0.00160185,0.04316037,0.01479489\\-0.00000440,0.00000600,-0.0000
 0769,0.00000224,0.00000049,0.00000455,0.00000872,-0.00000482,-0.000009
 05,0.00000397,0.00000004,-0.00000355,-0.00000848,-0.00000447,-0.000002
 02,0.00000110,0.00000546,-0.00000019,0.00000109,-0.00000164,0.00000003
 ,0.00000374,-0.00000245,0.00000157,0.00000171,0.00000237,-0.00000213,-
 0.00000063,-0.00000303,-0.00000107,0.00000672,0.00000503,0.00000879,-0
 .00000209,-0.00000048,-0.00000095,-0.00000152,-0.00000012,0.00000570,0
 .00000159,0.00000028,0.00000167,0.00000079,-0.00000047,-0.00000419,-0.
 00000199,-0.00000206,0.00000839,0.00000037,-0.00000057,-0.00000245,-0.
 00000182,0.00000161,0.00000486,-0.00000068,-0.00000150,0.00000272,-0.0
 0000751,0.00000214,-0.00000320,-0.00000349,-0.00000195,0.00000047,-0.0
 0000170,-0.00000268,-0.00000143,0.00000203,0.00000545,-0.00000628,-0.0
 0000089,-0.00000337,0.00000027,0.00000114,0.00000005,-0.00000158,-0.00
 000635,-0.00000576,0.00000588,-0.00000042,-0.00000076,0.00000042,0.000
 00041,0.00000141,-0.00000253,0.00000137,-0.00000026,-0.00000271,-0.000
 00009,0.00000242,-0.00000009,-0.00000098,0.00000268,-0.00000144,0.0000
 0061,0.00000123,0.00000050,0.00000199,0.00000178,0.00000048,0.00000104
 ,0.00000059,-0.00000187,0.00000129,0.00000029,-0.00000061,-0.00000003,
 -0.00000120,0.00000194,0.00000044,-0.00000044,0.00000155,0.00000096,-0
 .00000065,0.00000168,0.00000146,-0.00000116,0.00000057,0.00000165,-0.0
 0000149,0.00000093,0.00000060,-0.00000109,0.00000384,-0.00000093,-0.00
 000066,0.00000226,-0.00000280,-0.00000117,0.00000108,-0.00000274,-0.00
 000210,0.00000182,-0.00000149,0.00000002,0.00000044,0.00000100,0.00000
 176,-0.00000075,0.00000111,0.00000135,0.00000026,-0.00000049,-0.000001
 03,0.00000107,0.00000091,0.00000293,-0.00000465,0.00000146,0.00000198,
 -0.00000332\\\@


 ASKING DUMB QUESTIONS IS EASIER THAN CORECTING DUMB MISTAKES.
 Job cpu time:       0 days 11 hours  9 minutes 54.1 seconds.
 Elapsed time:       0 days  0 hours 10 minutes 35.5 seconds.
 File lengths (MBytes):  RWF=   1560 Int=      0 D2E=      0 Chk=     33 Scr=      1
 Normal termination of Gaussian 16 at Mon Dec 22 17:45:06 2025.
