 Entering Gaussian System, Link 0=g16
 Initial command:
 /home/users/ntu/xiaogan4/Softwares/g16/l1.exe "/scratch/users/ntu/xiaogan4/g16scratch/Gau-1302857.inp" -scrdir="/scratch/users/ntu/xiaogan4/g16scratch/"
 Entering Link 1 = /home/users/ntu/xiaogan4/Softwares/g16/l1.exe PID=   1302858.
  
 Copyright (c) 1988,1990,1992,1993,1995,1998,2003,2009,2016,
            Gaussian, Inc.  All Rights Reserved.
  
 This is part of the Gaussian(R) 16 program.  It is based on
 the Gaussian(R) 09 system (copyright 2009, Gaussian, Inc.),
 the Gaussian(R) 03 system (copyright 2003, Gaussian, Inc.),
 the Gaussian(R) 98 system (copyright 1998, Gaussian, Inc.),
 the Gaussian(R) 94 system (copyright 1995, Gaussian, Inc.),
 the Gaussian 92(TM) system (copyright 1992, Gaussian, Inc.),
 the Gaussian 90(TM) system (copyright 1990, Gaussian, Inc.),
 the Gaussian 88(TM) system (copyright 1988, Gaussian, Inc.),
 the Gaussian 86(TM) system (copyright 1986, Carnegie Mellon
 University), and the Gaussian 82(TM) system (copyright 1983,
 Carnegie Mellon University). Gaussian is a federally registered
 trademark of Gaussian, Inc.
  
 This software contains proprietary and confidential information,
 including trade secrets, belonging to Gaussian, Inc.
  
 This software is provided under written license and may be
 used, copied, transmitted, or stored only in accord with that
 written license.
  
 The following legend is applicable only to US Government
 contracts under FAR:
  
                    RESTRICTED RIGHTS LEGEND
  
 Use, reproduction and disclosure by the US Government is
 subject to restrictions as set forth in subparagraphs (a)
 and (c) of the Commercial Computer Software - Restricted
 Rights clause in FAR 52.227-19.
  
 Gaussian, Inc.
 340 Quinnipiac St., Bldg. 40, Wallingford CT 06492
  
  
 ---------------------------------------------------------------
 Warning -- This program may not be used in any manner that
 competes with the business of Gaussian, Inc. or will provide
 assistance to any competitor of Gaussian, Inc.  The licensee
 of this program is prohibited from giving any competitor of
 Gaussian, Inc. access to this program.  By using this program,
 the user acknowledges that Gaussian, Inc. is engaged in the
 business of creating and licensing software in the field of
 computational chemistry and represents and warrants to the
 licensee that it is not a competitor of Gaussian, Inc. and that
 it will not use this program in any manner prohibited above.
 ---------------------------------------------------------------
  

 Cite this work as:
 Gaussian 16, Revision A.03,
 M. J. Frisch, G. W. Trucks, H. B. Schlegel, G. E. Scuseria, 
 M. A. Robb, J. R. Cheeseman, G. Scalmani, V. Barone, 
 G. A. Petersson, H. Nakatsuji, X. Li, M. Caricato, A. V. Marenich, 
 J. Bloino, B. G. Janesko, R. Gomperts, B. Mennucci, H. P. Hratchian, 
 J. V. Ortiz, A. F. Izmaylov, J. L. Sonnenberg, D. Williams-Young, 
 F. Ding, F. Lipparini, F. Egidi, J. Goings, B. Peng, A. Petrone, 
 T. Henderson, D. Ranasinghe, V. G. Zakrzewski, J. Gao, N. Rega, 
 G. Zheng, W. Liang, M. Hada, M. Ehara, K. Toyota, R. Fukuda, 
 J. Hasegawa, M. Ishida, T. Nakajima, Y. Honda, O. Kitao, H. Nakai, 
 T. Vreven, K. Throssell, J. A. Montgomery, Jr., J. E. Peralta, 
 F. Ogliaro, M. J. Bearpark, J. J. Heyd, E. N. Brothers, K. N. Kudin, 
 V. N. Staroverov, T. A. Keith, R. Kobayashi, J. Normand, 
 K. Raghavachari, A. P. Rendell, J. C. Burant, S. S. Iyengar, 
 J. Tomasi, M. Cossi, J. M. Millam, M. Klene, C. Adamo, R. Cammi, 
 J. W. Ochterski, R. L. Martin, K. Morokuma, O. Farkas, 
 J. B. Foresman, and D. J. Fox, Gaussian, Inc., Wallingford CT, 2016.
 
 ******************************************
 Gaussian 16:  ES64L-G16RevA.03 25-Dec-2016
                22-Dec-2025 
 ******************************************
 %nprocshared=64
 Will use up to   64 processors via shared memory.
 %mem=128GB
 %oldchk=01C_Si_1_C_C2_CC_N__CC_C2C_C3_C__m062x_def2SVP_ethanol.chk
 %chk=02C_Si_1_C_C2_CC_N__CC_C2C_C3_C__m062x_def2SVP_ethanol.chk
 Copying data from "01C_Si_1_C_C2_CC_N__CC_C2C_C3_C__m062x_def2SVP_ethanol.chk" to current chk file "02C_Si_1_C_C2_CC_N__CC_C2C_C3_C__m062x_def2SVP_ethanol.chk"
 IOpt=  2 FromEx=T IUOpen= 4 IOptOp= 5 NList=   0 IFRang= 0 IUIn= 4 IUOut= 2.
 ----------------------------------------------------------------------
 # m062x/def2SVP TD=(NStates=5, Root=1) SCRF=(SMD, solvent=Ethanol) geo
 m=check guess=read
 ----------------------------------------------------------------------
 1/29=2,38=1,172=1/1;
 2/12=2,40=1/2;
 3/5=43,7=101,11=9,14=-4,25=1,30=1,70=32201,72=4,74=-55,116=-2/1,2,3,8;
 4/5=1/1;
 5/5=2,38=6,53=4/2;
 8/6=1,10=1,107=1,108=5/1;
 9/8=1,41=5,42=1,70=2/14;
 6/7=2,8=2,9=2,10=2/1;
 99/5=1,9=1/99;
 -----------------------
 Step2 Abs m062x/def2SVP
 -----------------------
 Structure from the checkpoint file:  "02C_Si_1_C_C2_CC_N__CC_C2C_C3_C__m062x_def2SVP_ethanol.chk"
 Charge =  1 Multiplicity = 1
 Redundant internal coordinates found in file.  (old form).
 C,0,-3.7760750013,1.0681430273,1.1267267248
 Si,0,-2.5515016196,0.9261958807,-0.2812496947
 C,0,-3.2898283497,1.5047676296,-1.900194681
 C,0,-0.9838077445,1.8885938084,0.1115174083
 C,0,-1.0693025769,3.2528922183,0.2691473894
 C,0,0.0745403292,4.0507429636,0.5700236239
 N,0,-0.0344242955,5.3700649469,0.720737469
 C,0,1.3300861965,3.3952292734,0.7029475145
 C,0,1.4190704839,2.0368467922,0.5509456513
 C,0,0.2816634674,1.2205620458,0.2522335015
 C,0,0.4577988078,-0.188620986,0.1015198404
 C,0,1.8484725161,-0.7105203168,0.3096021414
 C,0,2.7358476298,-0.8041534651,-0.7765210307
 C,0,2.3246184327,-0.3905157228,-2.1645460913
 C,0,4.017495565,-1.297750816,-0.5054846306
 C,0,4.4097013415,-1.6836229932,0.7719209401
 C,0,3.5160534832,-1.5902095148,1.8535249676
 N,0,3.8722963709,-2.0194404966,3.1152324582
 C,0,2.2262167283,-1.0927542061,1.5964967816
 C,0,-0.5396347132,-1.1583544329,-0.2207306446
 C,0,-1.9260644307,-0.8411817387,-0.4328105802
 C,0,-2.8252247385,-1.8349170746,-0.7448374963
 C,0,-2.4276441453,-3.1992561418,-0.8722963662
 C,0,-1.0558174951,-3.5170189486,-0.6698271111
 C,0,-0.1580866672,-2.5316040378,-0.3553713119
 N,0,-3.3176825376,-4.1442438285,-1.1720084567
 H,0,-4.0970581201,2.1140252987,1.2518190297
 H,0,-4.6700616465,0.4592434867,0.9203796181
 H,0,-3.3311157035,0.7246275806,2.0725690897
 H,0,-4.1762093625,0.9032072067,-2.1551871578
 H,0,-2.5607321896,1.4160423932,-2.7194266638
 H,0,-3.6033925497,2.5576532239,-1.8246818008
 H,0,-2.0283622862,3.7704601679,0.1664250268
 H,0,-0.9327815475,5.83164051,0.6268638925
 H,0,0.7785077815,5.9385812347,0.9323301628
 H,0,2.2173374109,3.9887168005,0.9297200738
 H,0,2.3987000925,1.5718117857,0.6625307521
 H,0,3.1519052825,-0.5313507498,-2.8728435162
 H,0,2.0247242309,0.6691175358,-2.1975934105
 H,0,1.465695865,-0.9801583437,-2.5230100722
 H,0,4.733929512,-1.3800922259,-1.3267882168
 H,0,5.4190614625,-2.0636946863,0.9445008779
 H,0,3.333278826,-1.6360219024,3.8847103206
 H,0,4.8681729934,-2.0565770977,3.3062688257
 H,0,1.5112041666,-1.0063120429,2.4188421539
 H,0,-3.8829222559,-1.6036826106,-0.9058472572
 H,0,-0.731512539,-4.5545731707,-0.7653655725
 H,0,0.8834753181,-2.8163351472,-0.2056208737
 H,0,-4.294989284,-3.9120003785,-1.3128849425
 H,0,-3.0356224944,-5.1142027344,-1.2644086561
 Recover connectivity data from disk.
                           ----------------------------
                           !    Current Parameters    !
                           ! (Angstroms and Degrees)  !
 --------------------------                            --------------------------
 ! Name  Definition              Value                                          !
 --------------------------------------------------------------------------------
 ! R1    R(1,2)                  1.8714                                         !
 ! R2    R(1,27)                 1.1012                                         !
 ! R3    R(1,28)                 1.1012                                         !
 ! R4    R(1,29)                 1.1003                                         !
 ! R5    R(2,3)                  1.8711                                         !
 ! R6    R(2,4)                  1.881                                          !
 ! R7    R(2,21)                 1.8809                                         !
 ! R8    R(3,30)                 1.1012                                         !
 ! R9    R(3,31)                 1.1003                                         !
 ! R10   R(3,32)                 1.1012                                         !
 ! R11   R(4,5)                  1.376                                          !
 ! R12   R(4,10)                 1.4379                                         !
 ! R13   R(5,6)                  1.4267                                         !
 ! R14   R(5,33)                 1.0946                                         !
 ! R15   R(6,7)                  1.3324                                         !
 ! R16   R(6,8)                  1.4226                                         !
 ! R17   R(7,34)                 1.0144                                         !
 ! R18   R(7,35)                 1.0143                                         !
 ! R19   R(8,9)                  1.3698                                         !
 ! R20   R(8,36)                 1.0913                                         !
 ! R21   R(9,10)                 1.4315                                         !
 ! R22   R(9,37)                 1.0901                                         !
 ! R23   R(10,11)                1.4281                                         !
 ! R24   R(11,12)                1.4999                                         !
 ! R25   R(11,20)                1.428                                          !
 ! R26   R(12,13)                1.4057                                         !
 ! R27   R(12,19)                1.3946                                         !
 ! R28   R(13,14)                1.5056                                         !
 ! R29   R(13,15)                1.3999                                         !
 ! R30   R(14,38)                1.0981                                         !
 ! R31   R(14,39)                1.1017                                         !
 ! R32   R(14,40)                1.1018                                         !
 ! R33   R(15,16)                1.3909                                         !
 ! R34   R(15,41)                1.093                                          !
 ! R35   R(16,17)                1.4061                                         !
 ! R36   R(16,42)                1.0923                                         !
 ! R37   R(17,18)                1.3795                                         !
 ! R38   R(17,19)                1.4061                                         !
 ! R39   R(18,43)                1.0147                                         !
 ! R40   R(18,44)                1.0147                                         !
 ! R41   R(19,45)                1.0931                                         !
 ! R42   R(20,21)                1.438                                          !
 ! R43   R(20,25)                1.4316                                         !
 ! R44   R(21,22)                1.376                                          !
 ! R45   R(22,23)                1.4268                                         !
 ! R46   R(22,46)                1.0946                                         !
 ! R47   R(23,24)                1.4226                                         !
 ! R48   R(23,26)                1.3323                                         !
 ! R49   R(24,25)                1.3696                                         !
 ! R50   R(24,47)                1.0912                                         !
 ! R51   R(25,48)                1.0901                                         !
 ! R52   R(26,49)                1.0144                                         !
 ! R53   R(26,50)                1.0144                                         !
 ! A1    A(2,1,27)             110.3807                                         !
 ! A2    A(2,1,28)             110.3847                                         !
 ! A3    A(2,1,29)             111.0053                                         !
 ! A4    A(27,1,28)            108.0495                                         !
 ! A5    A(27,1,29)            108.4673                                         !
 ! A6    A(28,1,29)            108.4678                                         !
 ! A7    A(1,2,3)              111.6738                                         !
 ! A8    A(1,2,4)              110.4545                                         !
 ! A9    A(1,2,21)             110.456                                          !
 ! A10   A(3,2,4)              110.5693                                         !
 ! A11   A(3,2,21)             110.6129                                         !
 ! A12   A(4,2,21)             102.7357                                         !
 ! A13   A(2,3,30)             110.4307                                         !
 ! A14   A(2,3,31)             110.9668                                         !
 ! A15   A(2,3,32)             110.4073                                         !
 ! A16   A(30,3,31)            108.4773                                         !
 ! A17   A(30,3,32)            107.9992                                         !
 ! A18   A(31,3,32)            108.4728                                         !
 ! A19   A(2,4,5)              118.6473                                         !
 ! A20   A(2,4,10)             121.0801                                         !
 ! A21   A(5,4,10)             120.272                                          !
 ! A22   A(4,5,6)              121.9247                                         !
 ! A23   A(4,5,33)             120.829                                          !
 ! A24   A(6,5,33)             117.2463                                         !
 ! A25   A(5,6,7)              120.7998                                         !
 ! A26   A(5,6,8)              118.0095                                         !
 ! A27   A(7,6,8)              121.1907                                         !
 ! A28   A(6,7,34)             120.834                                          !
 ! A29   A(6,7,35)             120.8676                                         !
 ! A30   A(34,7,35)            118.2984                                         !
 ! A31   A(6,8,9)              120.2604                                         !
 ! A32   A(6,8,36)             119.1037                                         !
 ! A33   A(9,8,36)             120.6357                                         !
 ! A34   A(8,9,10)             122.4816                                         !
 ! A35   A(8,9,37)             118.0385                                         !
 ! A36   A(10,9,37)            119.4798                                         !
 ! A37   A(4,10,9)             117.0505                                         !
 ! A38   A(4,10,11)            123.8246                                         !
 ! A39   A(9,10,11)            119.1231                                         !
 ! A40   A(10,11,12)           116.2991                                         !
 ! A41   A(10,11,20)           127.4277                                         !
 ! A42   A(12,11,20)           116.2729                                         !
 ! A43   A(11,12,13)           120.0865                                         !
 ! A44   A(11,12,19)           118.3287                                         !
 ! A45   A(13,12,19)           121.5848                                         !
 ! A46   A(12,13,14)           121.4407                                         !
 ! A47   A(12,13,15)           116.8625                                         !
 ! A48   A(14,13,15)           121.6968                                         !
 ! A49   A(13,14,38)           110.7094                                         !
 ! A50   A(13,14,39)           111.4834                                         !
 ! A51   A(13,14,40)           111.4594                                         !
 ! A52   A(38,14,39)           108.0025                                         !
 ! A53   A(38,14,40)           107.9875                                         !
 ! A54   A(39,14,40)           107.023                                          !
 ! A55   A(13,15,16)           122.2631                                         !
 ! A56   A(13,15,41)           118.7635                                         !
 ! A57   A(16,15,41)           118.9733                                         !
 ! A58   A(15,16,17)           120.5851                                         !
 ! A59   A(15,16,42)           120.148                                          !
 ! A60   A(17,16,42)           119.2669                                         !
 ! A61   A(16,17,18)           121.247                                          !
 ! A62   A(16,17,19)           117.7668                                         !
 ! A63   A(18,17,19)           120.9399                                         !
 ! A64   A(17,18,43)           116.0284                                         !
 ! A65   A(17,18,44)           115.9139                                         !
 ! A66   A(43,18,44)           113.1041                                         !
 ! A67   A(12,19,17)           120.9373                                         !
 ! A68   A(12,19,45)           119.692                                          !
 ! A69   A(17,19,45)           119.3706                                         !
 ! A70   A(11,20,21)           123.8455                                         !
 ! A71   A(11,20,25)           119.1092                                         !
 ! A72   A(21,20,25)           117.0437                                         !
 ! A73   A(2,21,20)            121.0627                                         !
 ! A74   A(2,21,22)            118.6587                                         !
 ! A75   A(20,21,22)           120.2776                                         !
 ! A76   A(21,22,23)           121.9211                                         !
 ! A77   A(21,22,46)           120.8125                                         !
 ! A78   A(23,22,46)           117.2664                                         !
 ! A79   A(22,23,24)           118.0067                                         !
 ! A80   A(22,23,26)           120.8098                                         !
 ! A81   A(24,23,26)           121.1835                                         !
 ! A82   A(23,24,25)           120.2667                                         !
 ! A83   A(23,24,47)           119.11                                           !
 ! A84   A(25,24,47)           120.6231                                         !
 ! A85   A(20,25,24)           122.4832                                         !
 ! A86   A(20,25,48)           119.49                                           !
 ! A87   A(24,25,48)           118.0268                                         !
 ! A88   A(23,26,49)           120.8303                                         !
 ! A89   A(23,26,50)           120.8625                                         !
 ! A90   A(49,26,50)           118.3071                                         !
 ! D1    D(27,1,2,3)           -59.7348                                         !
 ! D2    D(27,1,2,4)            63.7515                                         !
 ! D3    D(27,1,2,21)          176.7215                                         !
 ! D4    D(28,1,2,3)            59.6495                                         !
 ! D5    D(28,1,2,4)          -176.8642                                         !
 ! D6    D(28,1,2,21)          -63.8942                                         !
 ! D7    D(29,1,2,3)           179.9589                                         !
 ! D8    D(29,1,2,4)           -56.5547                                         !
 ! D9    D(29,1,2,21)           56.4153                                         !
 ! D10   D(1,2,3,30)           -59.6524                                         !
 ! D11   D(1,2,3,31)          -179.9791                                         !
 ! D12   D(1,2,3,32)            59.7155                                         !
 ! D13   D(4,2,3,30)           176.9262                                         !
 ! D14   D(4,2,3,31)            56.5996                                         !
 ! D15   D(4,2,3,32)           -63.7059                                         !
 ! D16   D(21,2,3,30)           63.8024                                         !
 ! D17   D(21,2,3,31)          -56.5242                                         !
 ! D18   D(21,2,3,32)         -176.8297                                         !
 ! D19   D(1,2,4,5)            -63.2898                                         !
 ! D20   D(1,2,4,10)           116.4249                                         !
 ! D21   D(3,2,4,5)             60.8338                                         !
 ! D22   D(3,2,4,10)          -119.4515                                         !
 ! D23   D(21,2,4,5)           178.8891                                         !
 ! D24   D(21,2,4,10)           -1.3962                                         !
 ! D25   D(1,2,21,20)         -116.3594                                         !
 ! D26   D(1,2,21,22)           63.2679                                         !
 ! D27   D(3,2,21,20)          119.4852                                         !
 ! D28   D(3,2,21,22)          -60.8875                                         !
 ! D29   D(4,2,21,20)            1.4607                                         !
 ! D30   D(4,2,21,22)         -178.9121                                         !
 ! D31   D(2,4,5,6)            179.8977                                         !
 ! D32   D(2,4,5,33)            -0.1345                                         !
 ! D33   D(10,4,5,6)             0.1805                                         !
 ! D34   D(10,4,5,33)         -179.8516                                         !
 ! D35   D(2,4,10,9)           179.9711                                         !
 ! D36   D(2,4,10,11)            0.4568                                         !
 ! D37   D(5,4,10,9)            -0.3187                                         !
 ! D38   D(5,4,10,11)         -179.8331                                         !
 ! D39   D(4,5,6,7)           -179.8593                                         !
 ! D40   D(4,5,6,8)              0.1622                                         !
 ! D41   D(33,5,6,7)             0.1718                                         !
 ! D42   D(33,5,6,8)          -179.8067                                         !
 ! D43   D(5,6,7,34)             0.1632                                         !
 ! D44   D(5,6,7,35)          -179.8436                                         !
 ! D45   D(8,6,7,34)          -179.859                                          !
 ! D46   D(8,6,7,35)             0.1342                                         !
 ! D47   D(5,6,8,9)             -0.3619                                         !
 ! D48   D(5,6,8,36)           179.8039                                         !
 ! D49   D(7,6,8,9)            179.6597                                         !
 ! D50   D(7,6,8,36)            -0.1745                                         !
 ! D51   D(6,8,9,10)             0.2225                                         !
 ! D52   D(6,8,9,37)          -179.8741                                         !
 ! D53   D(36,8,9,10)         -179.9459                                         !
 ! D54   D(36,8,9,37)           -0.0424                                         !
 ! D55   D(8,9,10,4)             0.1194                                         !
 ! D56   D(8,9,10,11)          179.6576                                         !
 ! D57   D(37,9,10,4)         -179.7827                                         !
 ! D58   D(37,9,10,11)          -0.2445                                         !
 ! D59   D(4,10,11,12)        -178.9189                                         !
 ! D60   D(4,10,11,20)           0.8753                                         !
 ! D61   D(9,10,11,12)           1.5763                                         !
 ! D62   D(9,10,11,20)        -178.6296                                         !
 ! D63   D(10,11,12,13)        -90.2233                                         !
 ! D64   D(10,11,12,19)         89.7261                                         !
 ! D65   D(20,11,12,13)         89.959                                          !
 ! D66   D(20,11,12,19)        -90.0916                                         !
 ! D67   D(10,11,20,21)         -0.7988                                         !
 ! D68   D(10,11,20,25)        178.7168                                         !
 ! D69   D(12,11,20,21)        178.9954                                         !
 ! D70   D(12,11,20,25)         -1.489                                          !
 ! D71   D(11,12,13,14)         -0.05                                           !
 ! D72   D(11,12,13,15)        179.8741                                         !
 ! D73   D(19,12,13,14)       -179.9977                                         !
 ! D74   D(19,12,13,15)         -0.0736                                         !
 ! D75   D(11,12,19,17)        179.961                                          !
 ! D76   D(11,12,19,45)          0.0144                                         !
 ! D77   D(13,12,19,17)         -0.0904                                         !
 ! D78   D(13,12,19,45)        179.963                                          !
 ! D79   D(12,13,14,38)        179.6877                                         !
 ! D80   D(12,13,14,39)         59.4313                                         !
 ! D81   D(12,13,14,40)        -60.0908                                         !
 ! D82   D(15,13,14,38)         -0.2327                                         !
 ! D83   D(15,13,14,39)       -120.4891                                         !
 ! D84   D(15,13,14,40)        119.9887                                         !
 ! D85   D(12,13,15,16)          0.0976                                         !
 ! D86   D(12,13,15,41)       -179.7729                                         !
 ! D87   D(14,13,15,16)       -179.9785                                         !
 ! D88   D(14,13,15,41)          0.151                                          !
 ! D89   D(13,15,16,17)          0.0425                                         !
 ! D90   D(13,15,16,42)       -179.9648                                         !
 ! D91   D(41,15,16,17)        179.9128                                         !
 ! D92   D(41,15,16,42)         -0.0945                                         !
 ! D93   D(15,16,17,18)        177.3436                                         !
 ! D94   D(15,16,17,19)         -0.2035                                         !
 ! D95   D(42,16,17,18)         -2.6492                                         !
 ! D96   D(42,16,17,19)        179.8037                                         !
 ! D97   D(16,17,18,43)        159.246                                          !
 ! D98   D(16,17,18,44)         22.961                                          !
 ! D99   D(19,17,18,43)        -23.2845                                         !
 ! D100  D(19,17,18,44)       -159.5695                                         !
 ! D101  D(16,17,19,12)          0.2272                                         !
 ! D102  D(16,17,19,45)       -179.826                                          !
 ! D103  D(18,17,19,12)       -177.3278                                         !
 ! D104  D(18,17,19,45)          2.6189                                         !
 ! D105  D(11,20,21,2)          -0.5945                                         !
 ! D106  D(11,20,21,22)        179.7843                                         !
 ! D107  D(25,20,21,2)         179.8808                                         !
 ! D108  D(25,20,21,22)          0.2595                                         !
 ! D109  D(11,20,25,24)       -179.6249                                         !
 ! D110  D(11,20,25,48)          0.2989                                         !
 ! D111  D(21,20,25,24)         -0.0767                                         !
 ! D112  D(21,20,25,48)        179.8471                                         !
 ! D113  D(2,21,22,23)        -179.77                                           !
 ! D114  D(2,21,22,46)           0.2306                                         !
 ! D115  D(20,21,22,23)         -0.1397                                         !
 ! D116  D(20,21,22,46)        179.8608                                         !
 ! D117  D(21,22,23,24)         -0.1651                                         !
 ! D118  D(21,22,23,26)        179.8314                                         !
 ! D119  D(46,22,23,24)        179.8343                                         !
 ! D120  D(46,22,23,26)         -0.1692                                         !
 ! D121  D(22,23,24,25)          0.3473                                         !
 ! D122  D(22,23,24,47)       -179.8483                                         !
 ! D123  D(26,23,24,25)       -179.6493                                         !
 ! D124  D(26,23,24,47)          0.1552                                         !
 ! D125  D(22,23,26,49)         -0.1571                                         !
 ! D126  D(22,23,26,50)        179.8925                                         !
 ! D127  D(24,23,26,49)        179.8394                                         !
 ! D128  D(24,23,26,50)         -0.111                                          !
 ! D129  D(23,24,25,20)         -0.2288                                         !
 ! D130  D(23,24,25,48)        179.8463                                         !
 ! D131  D(47,24,25,20)        179.9697                                         !
 ! D132  D(47,24,25,48)          0.0449                                         !
 --------------------------------------------------------------------------------
                          Input orientation:                          
 ---------------------------------------------------------------------
 Center     Atomic      Atomic             Coordinates (Angstroms)
 Number     Number       Type             X           Y           Z
 ---------------------------------------------------------------------
      1          6           0       -3.776075    1.068143    1.126727
      2         14           0       -2.551502    0.926196   -0.281250
      3          6           0       -3.289828    1.504768   -1.900195
      4          6           0       -0.983808    1.888594    0.111517
      5          6           0       -1.069303    3.252892    0.269147
      6          6           0        0.074540    4.050743    0.570024
      7          7           0       -0.034424    5.370065    0.720737
      8          6           0        1.330086    3.395229    0.702948
      9          6           0        1.419070    2.036847    0.550946
     10          6           0        0.281663    1.220562    0.252234
     11          6           0        0.457799   -0.188621    0.101520
     12          6           0        1.848473   -0.710520    0.309602
     13          6           0        2.735848   -0.804153   -0.776521
     14          6           0        2.324618   -0.390516   -2.164546
     15          6           0        4.017496   -1.297751   -0.505485
     16          6           0        4.409701   -1.683623    0.771921
     17          6           0        3.516053   -1.590210    1.853525
     18          7           0        3.872296   -2.019440    3.115232
     19          6           0        2.226217   -1.092754    1.596497
     20          6           0       -0.539635   -1.158354   -0.220731
     21          6           0       -1.926064   -0.841182   -0.432811
     22          6           0       -2.825225   -1.834917   -0.744837
     23          6           0       -2.427644   -3.199256   -0.872296
     24          6           0       -1.055817   -3.517019   -0.669827
     25          6           0       -0.158087   -2.531604   -0.355371
     26          7           0       -3.317683   -4.144244   -1.172008
     27          1           0       -4.097058    2.114025    1.251819
     28          1           0       -4.670062    0.459243    0.920380
     29          1           0       -3.331116    0.724628    2.072569
     30          1           0       -4.176209    0.903207   -2.155187
     31          1           0       -2.560732    1.416042   -2.719427
     32          1           0       -3.603393    2.557653   -1.824682
     33          1           0       -2.028362    3.770460    0.166425
     34          1           0       -0.932782    5.831641    0.626864
     35          1           0        0.778508    5.938581    0.932330
     36          1           0        2.217337    3.988717    0.929720
     37          1           0        2.398700    1.571812    0.662531
     38          1           0        3.151905   -0.531351   -2.872844
     39          1           0        2.024724    0.669118   -2.197593
     40          1           0        1.465696   -0.980158   -2.523010
     41          1           0        4.733930   -1.380092   -1.326788
     42          1           0        5.419061   -2.063695    0.944501
     43          1           0        3.333279   -1.636022    3.884710
     44          1           0        4.868173   -2.056577    3.306269
     45          1           0        1.511204   -1.006312    2.418842
     46          1           0       -3.882922   -1.603683   -0.905847
     47          1           0       -0.731513   -4.554573   -0.765366
     48          1           0        0.883475   -2.816335   -0.205621
     49          1           0       -4.294989   -3.912000   -1.312885
     50          1           0       -3.035622   -5.114203   -1.264409
 ---------------------------------------------------------------------
                    Distance matrix (angstroms):
                    1          2          3          4          5
     1  C    0.000000
     2  Si   1.871397   0.000000
     3  C    3.096664   1.871057   0.000000
     4  C    3.082296   1.880994   3.084159   0.000000
     5  C    3.582623   2.813071   3.562684   1.376033   0.000000
     6  C    4.902352   4.169359   4.889064   2.450555   1.426699
     7  N    5.715882   5.204578   5.692755   3.659661   2.399443
     8  C    5.627415   4.704412   5.629725   2.823800   2.442439
     9  C    5.315962   4.206131   5.335253   2.447223   2.783914
    10  C    4.153699   2.897944   4.179626   1.437875   2.440443
    11  C    4.533894   3.231906   4.573744   2.528468   3.768839
    12  C    5.955407   4.731566   6.016048   3.849213   4.921756
    13  C    7.037967   5.585290   6.550002   4.677108   5.659701
    14  C    7.083687   5.390462   5.931610   4.617412   5.542200
    15  C    8.306703   6.938872   7.949611   5.962090   6.869055
    16  C    8.643208   7.508573   8.751502   6.502831   7.391985
    17  C    7.795525   6.906865   8.365962   5.948564   6.855026
    18  N    8.484392   7.840794   9.427120   6.919305   7.766408
    19  C    6.396692   5.516220   7.028565   4.625782   5.613105
    20  C    4.153008   2.897692   4.180476   3.097026   4.469857
    21  C    3.082242   1.880895   3.084890   2.938676   4.241253
    22  C    3.582545   2.813109   3.564295   4.241308   5.476973
    23  C    4.901536   4.169416   4.891603   5.379477   6.691652
    24  C    5.625933   4.704277   5.632313   5.462265   6.834731
    25  C    5.314568   4.205985   5.337282   4.520835   5.889035
    26  N    5.715180   5.204790   5.695820   6.594660   7.864462
    27  H    1.101158   2.479916   3.310288   3.323166   3.380823
    28  H    1.101158   2.479971   3.309653   4.035563   4.603699
    29  H    1.100277   2.487748   4.048849   3.272674   3.841907
    30  H    3.310328   2.480291   1.101166   4.037371   4.588168
    31  H    4.048579   2.486914   1.100270   3.274789   3.811818
    32  H    3.310479   2.479982   1.101178   3.325467   3.359924
    33  H    3.358452   2.926419   3.315958   2.153028   1.094634
    34  H    5.570017   5.244837   5.537465   3.976909   2.607018
    35  H    6.671071   6.138872   6.650809   4.492426   3.326731
    36  H    6.670049   5.795456   6.671379   3.915010   3.432171
    37  H    6.212649   5.080555   6.239504   3.441704   3.873993
    38  H    8.157932   6.431924   6.825522   5.645057   6.481605
    39  H    6.697731   4.967928   5.388063   3.983765   4.725855
    40  H    6.707628   4.979714   5.401645   4.601146   5.669310
    41  H    9.188785   7.712952   8.545870   6.741332   7.595331
    42  H    9.715562   8.600685   9.832140   7.570415   8.415525
    43  H    8.090852   7.651851   9.337839   6.730315   7.507097
    44  H    9.446550   8.764633  10.312295   7.747031   8.524564
    45  H    5.824796   5.246967   6.928890   4.464226   5.424115
    46  H    3.358783   2.926275   3.317070   4.651440   5.734404
    47  H    6.668157   5.795305   6.674461   6.507456   7.882946
    48  H    6.210936   5.080485   6.241792   5.071852   6.393299
    49  H    5.569812   5.245204   5.540456   6.829329   8.015208
    50  H    6.669872   6.139006   6.654293   7.425785   8.730778
                    6          7          8          9         10
     6  C    0.000000
     7  N    1.332366   0.000000
     8  C    1.422590   2.400454   0.000000
     9  C    2.421550   3.640305   1.369754   0.000000
    10  C    2.855489   4.187813   2.455913   1.431518   0.000000
    11  C    4.282358   5.614686   3.737189   2.465509   1.428123
    12  C    5.087660   6.378703   4.156997   2.791175   2.487421
    13  C    5.697873   6.930885   4.669026   3.401081   3.343775
    14  C    5.680273   6.861066   4.852162   3.753132   3.551065
    15  C    6.731270   7.898192   5.541348   4.357453   4.568641
    16  C    7.191477   8.337109   5.939994   4.778556   5.073959
    17  C    6.731399   7.895221   5.563891   4.387435   4.574478
    18  N    7.599221   8.694876   6.449853   5.389559   5.620233
    19  C    5.669120   6.902571   4.662990   3.396920   3.307531
    20  C    5.304451   6.615275   5.008409   3.826398   2.560756
    21  C    5.379500   6.594586   5.462567   4.521145   3.097440
    22  C    6.691673   7.864365   6.834992   5.889283   4.470219
    23  C    7.804082   9.038723   7.751720   6.651286   5.304687
    24  C    7.751513   9.053020   7.440176   6.201676   5.008365
    25  C    6.651148   7.975567   6.201778   4.917273   3.826397
    26  N    9.038786  10.241306   9.053224   7.975668   6.615504
    27  H    4.649511   5.233434   5.603270   5.561012   4.579372
    28  H    5.960945   6.756120   6.683492   6.301019   5.054266
    29  H    4.991911   5.854546   5.543896   5.157667   4.075751
    30  H    5.950011   6.736330   6.685686   6.317868   5.076319
    31  H    4.970593   5.818183   5.546917   5.188407   4.116818
    32  H    4.635852   5.208297   5.606216   5.580321   4.603808
    33  H    2.159548   2.615681   3.421671   3.877894   3.441738
    34  H    2.046833   1.014352   3.326027   4.465135   4.783019
    35  H    2.047137   1.014318   2.612565   3.972318   4.792608
    36  H    2.173662   2.649949   1.091269   2.142544   3.445069
    37  H    3.399320   4.511121   2.113864   1.090130   2.184849
    38  H    6.505313   7.608760   5.614565   4.617433   4.590598
    39  H    4.785218   5.903868   4.040711   3.129212   3.056796
    40  H    6.067301   7.286810   5.437758   4.307400   3.734579
    41  H    7.402822   8.514351   6.205616   5.117582   5.392530
    42  H    8.129606   9.222329   6.824802   5.741886   6.136647
    43  H    7.344782   8.392699   6.280914   5.316780   5.537808
    44  H    8.231969   9.266900   7.001252   6.020318   6.411150
    45  H    5.572786   6.777220   4.727649   3.571882   3.341397
    46  H    7.057778   8.129568   7.399513   6.594454   5.163457
    47  H    8.745539  10.059467   8.342991   7.057230   5.950985
    48  H    6.957928   8.289622   6.293528   4.940914   4.107109
    49  H    9.275959  10.413682   9.439315   8.456543   7.052556
    50  H    9.850608  11.084578   9.764238   8.618429   7.309845
                   11         12         13         14         15
    11  C    0.000000
    12  C    1.499884   0.000000
    13  C    2.517805   1.405655   0.000000
    14  C    2.942929   2.539789   1.505596   0.000000
    15  C    3.777574   2.390370   1.399900   2.537990   0.000000
    16  C    4.278084   2.778590   2.443957   3.826557   1.390859
    17  C    3.793006   2.436879   2.853725   4.359321   2.429383
    18  N    4.908478   3.698743   4.232515   5.738010   3.694795
    19  C    2.485903   1.394594   2.444223   3.827305   2.769301
    20  C    1.427971   2.486939   3.341129   3.545693   4.568145
    21  C    2.528665   3.849075   4.674712   4.611975   5.961513
    22  C    3.768933   4.921337   5.655882   5.533783   6.867944
    23  C    4.282292   5.086832   5.692744   5.669474   6.729792
    24  C    3.736876   4.155793   4.663448   4.841132   5.539916
    25  C    2.465286   2.790128   3.396514   3.744489   4.356652
    26  N    5.614542   6.377679   6.925160   6.849173   7.896304
    27  H    5.231834   6.649448   7.701852   7.692997   8.976320
    28  H    5.233088   6.650766   7.702151   7.691840   8.977403
    29  H    4.367486   5.656486   6.874775   7.154301   8.046022
    30  H    5.268667   6.706422   7.252057   6.628316   8.643063
    31  H    4.432179   5.756594   6.062830   5.238148   7.452469
    32  H    5.267404   6.705144   7.251645   6.629368   8.641895
    33  H    4.675418   5.927017   6.671876   6.457212   7.917741
    34  H    6.201068   7.115890   7.711167   7.557635   8.753038
    35  H    6.191584   6.763369   7.226052   7.213776   8.057472
    36  H    4.607824   4.754307   5.113875   5.363177   5.766032
    37  H    2.679730   2.374100   2.798169   3.442177   3.495590
    38  H    4.027718   3.443690   2.154552   1.098145   2.634578
    39  H    2.911510   2.867141   2.166950   1.101749   3.271535
    40  H    2.920710   2.871048   2.166677   1.101782   3.268479
    41  H    4.663149   3.384075   2.151007   2.736034   1.092976
    42  H    5.370349   3.870825   3.427535   4.694814   2.157201
    43  H    4.967483   3.980277   4.772421   6.257970   4.456051
    44  H    5.762905   4.462115   4.773316   6.259013   3.978559
    45  H    2.673624   2.156417   3.427968   4.695561   3.862398
    46  H    4.675366   5.926546   6.668140   6.449004   7.916469
    47  H    4.607330   4.752749   5.107676   5.351357   5.764331
    48  H    2.679630   2.373000   2.793937   3.434950   3.495440
    49  H    6.201056   7.115059   7.705781   7.546217   8.751206
    50  H    6.191212   6.761976   7.219725   7.201087   8.055293
                   16         17         18         19         20
    16  C    0.000000
    17  C    1.406129   0.000000
    18  N    2.427486   1.379512   0.000000
    19  C    2.407625   1.406131   2.423816   0.000000
    20  C    5.075154   4.575767   5.597790   3.310068   0.000000
    21  C    6.504077   5.950212   6.899122   4.628479   1.437972
    22  C    7.393754   6.857345   7.732463   5.616913   2.440563
    23  C    7.193739   6.733994   7.548616   5.673686   2.855591
    24  C    5.942380   5.566139   6.391848   4.667444   2.455897
    25  C    4.780643   4.389163   5.343350   3.400732   1.431615
    26  N    8.339423   7.897904   8.636609   6.907317   4.187841
    27  H    9.328311   8.487807   9.168885   7.098313   5.052933
    28  H    9.330381   8.490200   9.161503   7.101020   4.580304
    29  H    8.210457   7.231195   7.778573   5.866299   4.073967
    30  H    9.432789   9.025398  10.054732   7.684403   4.606173
    31  H    8.389540   8.177821   9.339681   6.916367   4.117746
    32  H    9.430824   9.023330  10.061733   7.682075   5.076218
    33  H    8.459451   7.894532   8.777026   6.617961   5.163275
    34  H    9.221841   8.739605   9.535210   7.672464   7.052164
    35  H    8.444483   8.063836   8.812871   7.209484   7.309825
    36  H    6.083321   5.802111   6.604037   5.125038   5.951199
    37  H    3.828048   3.558838   4.591767   2.828773   4.107039
    38  H    4.024188   4.857195   6.212119   4.598595   4.588497
    39  H    4.476776   4.872390   6.234419   4.188068   3.718007
    40  H    4.474215   4.871364   6.217846   4.190633   3.058365
    41  H    2.145189   3.412003   4.569762   3.862225   5.392867
    42  H    1.092267   2.161470   2.665805   3.400306   6.138686
    43  H    3.293996   2.039907   1.014715   2.599355   5.664121
    44  H    2.602347   2.038674   1.014714   3.291232   6.518505
    45  H    3.401821   2.163317   2.661981   1.093146   3.346102
    46  H    8.461023   7.896782   8.745590   6.621507   3.441696
    47  H    6.085859   5.804124   6.533069   5.129400   3.444960
    48  H    3.830521   3.560047   4.538299   2.832192   2.185033
    49  H    9.224084   8.742383   9.481274   7.677160   4.783101
    50  H    8.446796   8.066257   8.745179   7.214138   4.792489
                   21         22         23         24         25
    21  C    0.000000
    22  C    1.375994   0.000000
    23  C    2.450560   1.426793   0.000000
    24  C    2.823758   2.442518   1.422630   0.000000
    25  C    2.447298   2.784005   2.421541   1.369615   0.000000
    26  N    3.659677   2.399579   1.332290   2.400340   3.640130
    27  H    4.035398   4.604166   5.960685   6.682105   6.299240
    28  H    3.324417   3.382239   4.650456   5.603765   5.561531
    29  H    3.271522   3.839919   4.988523   5.539791   5.154227
    30  H    3.327556   3.363268   4.640420   5.610841   5.584136
    31  H    3.275130   3.812833   4.972985   5.549840   5.190894
    32  H    4.037674   4.589802   5.952430   6.687710   6.318983
    33  H    4.651536   5.734601   7.057996   7.399494   6.594408
    34  H    6.829061   8.014924   9.275731   9.438961   8.456287
    35  H    7.425867   8.730811   9.850693   9.764222   8.618551
    36  H    6.507856   7.883292   8.745860   8.343151   7.057527
    37  H    5.072070   6.393425   6.957901   6.293256   4.940780
    38  H    5.642299   6.477174   6.500098   5.610029   4.614621
    39  H    4.583033   5.648247   6.045189   5.417338   4.289879
    40  H    3.986513   4.722765   4.775704   4.028397   3.121268
    41  H    6.741301   7.595153   7.402976   6.206386   5.118735
    42  H    7.572476   8.418697   8.133944   6.829514   5.745710
    43  H    6.850799   7.707103   7.632892   6.598949   5.565069
    44  H    7.849813   8.697641   8.484991   7.282575   6.236709
    45  H    4.469229   5.431397   5.581677   4.736362   3.579009
    46  H    2.152780   1.094586   2.159818   3.421854   3.877946
    47  H    3.914949   3.432285   2.173748   1.091247   2.142269
    48  H    3.441854   3.874067   3.399205   2.113599   1.090114
    49  H    3.976967   2.607137   2.046729   3.325924   4.465007
    50  H    4.492369   3.326851   2.047049   2.612308   3.971949
                   26         27         28         29         30
    26  N    0.000000
    27  H    6.756352   0.000000
    28  H    5.234416   1.782270   0.000000
    29  H    5.850929   1.786260   1.786266   0.000000
    30  H    5.213489   3.616633   3.146443   4.315089   0.000000
    31  H    5.821019   4.314889   4.314270   4.902527   1.786374
    32  H    6.739661   3.147280   3.616140   4.315401   1.781725
    33  H    8.129962   2.863802   4.302462   3.821995   4.268989
    34  H   10.413547   4.921776   6.551035   5.824401   6.522966
    35  H   11.084691   6.204873   7.727237   6.736057   7.709538
    36  H   10.059759   6.594680   7.739091   6.538021   7.740443
    37  H    8.289503   6.544932   7.160425   5.961268   7.184428
    38  H    7.602723   8.749761   8.749456   8.250100   7.501617
    39  H    7.263717   7.173732   7.388231   6.849992   6.205495
    40  H    5.892143   7.400509   7.181666   6.858210   5.959317
    41  H    8.514279   9.840956   9.842153   9.001690   9.235273
    42  H    9.227079  10.397323  10.399817   9.252723  10.510937
    43  H    8.723352   8.729541   8.788109   7.298676   9.965965
    44  H    9.561462  10.099013  10.148879   8.745596  10.972177
    45  H    6.786676   6.523117   6.526966   5.154039   7.544182
    46  H    2.616255   4.303804   2.865372   3.820534   2.816268
    47  H    2.649906   7.737321   6.594866   6.533129   6.601887
    48  H    4.510762   7.158093   6.545156   5.957461   6.575425
    49  H    1.014353   6.552089   4.922999   5.821398   4.889765
    50  H    1.014355   7.726922   6.205481   6.731618   6.188994
                   31         32         33         34         35
    31  H    0.000000
    32  H    1.786333   0.000000
    33  H    3.762292   2.813561   0.000000
    34  H    5.774547   4.884796   2.379236   0.000000
    35  H    6.703671   6.183271   3.628482   1.741625   0.000000
    36  H    6.539486   6.596633   4.319285   3.662150   2.423264
    37  H    6.004820   6.571395   4.967802   5.407974   4.665457
    38  H    6.037392   7.501642   7.387686   8.331883   7.872254
    39  H    4.675106   5.948221   5.624448   6.586049   6.254336
    40  H    4.689614   6.220887   6.481503   7.878769   7.764056
    41  H    7.935358   9.233887   8.630554   9.377498   8.620438
    42  H    9.445107  10.508563   9.492465  10.138201   9.250476
    43  H    9.363177   9.914710   8.473659   9.196674   8.521621
    44  H   10.176282  10.926353   9.559037  10.151564   9.288891
    45  H    6.989297   7.541117   6.357631   7.479428   7.139895
    46  H    3.762445   4.270727   5.785376   8.144726   9.055030
    47  H    6.543138   7.742972   8.476806  10.481042  10.736323
    48  H    6.007895   7.185617   7.211317   8.875771   8.829185
    49  H    5.777028   6.526612   8.145315  10.488356  11.305544
    50  H    6.707213   7.713212   9.055335  11.305323  11.896944
                   36         37         38         39         40
    36  H    0.000000
    37  H    2.438383   0.000000
    38  H    5.980294   4.182043   0.000000
    39  H    4.564748   3.022420   1.779782   0.000000
    40  H    6.097215   4.186970   1.779639   1.771587   0.000000
    41  H    6.344224   4.257279   2.369272   3.506759   3.503176
    42  H    6.847112   4.734870   4.696828   5.372387   5.369058
    43  H    6.450967   4.641775   6.849652   6.634787   6.706482
    44  H    7.015732   5.123754   6.591913   6.768095   6.834912
    45  H    5.259888   3.243301   5.560524   4.937838   4.942131
    46  H    8.476875   7.211266   7.382938   6.460226   5.622430
    47  H    9.195479   7.026358   5.975677   6.077422   4.549009
    48  H    7.026871   4.722862   4.181029   4.173582   3.013440
    49  H   10.481460   8.875806   8.325773   7.855452   6.576138
    50  H   10.736430   8.828802   7.866072   7.741107   6.239893
                   41         42         43         44         45
    41  H    0.000000
    42  H    2.468901   0.000000
    43  H    5.402503   3.630182   0.000000
    44  H    4.684108   2.425176   1.693328   0.000000
    45  H    4.955342   4.308490   2.421830   3.627647   0.000000
    46  H    8.630024   9.495383   8.661642   9.722587   6.364512
    47  H    6.345359   6.852567   6.831082   7.360344   5.268692
    48  H    4.259790   4.739282   4.911770   5.365484   3.249313
    49  H    9.377213  10.142722   9.507131  10.427978   7.488704
    50  H    8.620523   9.255623   8.897981   9.628611   7.149457
                   46         47         48         49         50
    46  H    0.000000
    47  H    4.319592   0.000000
    48  H    4.967835   2.437821   0.000000
    49  H    2.379876   3.662109   5.407681   0.000000
    50  H    3.629082   2.423046   4.664821   1.741736   0.000000
 Stoichiometry    C22H24N3Si(1+)
 Framework group  C1[X(C22H24N3Si)]
 Deg. of freedom   144
 Full point group                 C1      NOp   1
 Largest Abelian subgroup         C1      NOp   1
 Largest concise Abelian subgroup C1      NOp   1
                         Standard orientation:                         
 ---------------------------------------------------------------------
 Center     Atomic      Atomic             Coordinates (Angstroms)
 Number     Number       Type             X           Y           Z
 ---------------------------------------------------------------------
      1          6           0       -3.660030   -0.019024   -1.823523
      2         14           0       -2.751349   -0.013384   -0.187554
      3          6           0       -3.935825   -0.019625    1.260835
      4          6           0       -1.573827   -1.476594   -0.084618
      5          6           0       -2.098531   -2.748466   -0.106825
      6          6           0       -1.270043   -3.907740   -0.034972
      7          7           0       -1.801908   -5.129065   -0.061089
      8          6           0        0.136334   -3.718615    0.065511
      9          6           0        0.663238   -2.454390    0.083778
     10          6           0       -0.152503   -1.280392    0.009349
     11          6           0        0.472375    0.003360    0.041664
     12          6           0        1.970355    0.011582    0.116761
     13          6           0        2.613205    0.019248    1.366781
     14          6           0        1.830041    0.020573    2.652655
     15          6           0        4.013071    0.023919    1.358142
     16          6           0        4.748257    0.023198    0.177469
     17          6           0        4.098874    0.018552   -1.069719
     18          7           0        4.813211    0.072439   -2.248647
     19          6           0        2.692782    0.010287   -1.076130
     20          6           0       -0.165765    1.280328    0.006580
     21          6           0       -1.589189    1.462041   -0.086203
     22          6           0       -2.126809    2.728432   -0.110239
     23          6           0       -1.309890    3.896238   -0.042338
     24          6           0        0.098524    3.721460    0.056151
     25          6           0        0.638191    2.462815    0.076584
     26          7           0       -1.853820    5.112105   -0.070694
     27          1           0       -4.295989   -0.914190   -1.905873
     28          1           0       -4.307240    0.868044   -1.905850
     29          1           0       -2.953613   -0.014559   -2.667066
     30          1           0       -4.587772    0.867200    1.228062
     31          1           0       -3.389750   -0.015869    2.216022
     32          1           0       -4.576750   -0.914491    1.228859
     33          1           0       -3.178905   -2.908392   -0.180578
     34          1           0       -2.805355   -5.257679   -0.134999
     35          1           0       -1.214038   -5.953928   -0.007699
     36          1           0        0.786583   -4.592987    0.124824
     37          1           0        1.745841   -2.351488    0.159701
     38          1           0        2.505327    0.021330    3.518630
     39          1           0        1.178873   -0.864830    2.729414
     40          1           0        1.179665    0.906755    2.727583
     41          1           0        4.544904    0.026115    2.312996
     42          1           0        5.840003    0.026370    0.211046
     43          1           0        4.329482   -0.256403   -3.077812
     44          1           0        5.776431   -0.242709   -2.198317
     45          1           0        2.161019    0.003634   -2.031196
     46          1           0       -3.208837    2.876906   -0.182962
     47          1           0        0.740192    4.602366    0.111707
     48          1           0        1.721946    2.371305    0.150405
     49          1           0       -2.858604    5.230538   -0.143458
     50          1           0       -1.273924    5.942858   -0.020842
 ---------------------------------------------------------------------
 Rotational constants (GHZ):           0.2093954           0.1837770           0.1138861
 Standard basis: def2SVP (5D, 7F)
 There are   514 symmetry adapted cartesian basis functions of A   symmetry.
 There are   488 symmetry adapted basis functions of A   symmetry.
   488 basis functions,   830 primitive gaussians,   514 cartesian basis functions
    95 alpha electrons       95 beta electrons
       nuclear repulsion energy      2416.8408542583 Hartrees.
 NAtoms=   50 NActive=   50 NUniq=   50 SFac= 1.00D+00 NAtFMM=   60 NAOKFM=F Big=F
 Integral buffers will be    131072 words long.
 Regular integral format.
 Two-electron integral symmetry is turned on.
 ------------------------------------------------------------------------------
 Polarizable Continuum Model (PCM)
 =================================
 Model                : PCM.
 Atomic radii         : SMD-Coulomb.
 Polarization charges : Total charges.
 Charge compensation  : None.
 Solution method      : On-the-fly selection.
 Cavity type          : VdW (van der Waals Surface) (Alpha=1.000).
 Cavity algorithm     : GePol (No added spheres)
                        Default sphere list used, NSphG=   50.
                        Lebedev-Laikov grids with approx.  5.0 points / Ang**2.
                        Smoothing algorithm: York/Karplus (Gamma=1.0000).
                        Polarization charges: spherical gaussians, with
                                              point-specific exponents (IZeta= 3).
                        Self-potential: point-specific (ISelfS= 7).
                        Self-field    : sphere-specific E.n sum rule (ISelfD= 2).
 Solvent              : Ethanol, Eps=  24.852000 Eps(inf)=   1.852593
 ------------------------------------------------------------------------------
 ------------------------------------------------------------------------------
 Atomic radii for non-electrostatic terms: SMD-CDS.
 ------------------------------------------------------------------------------
 Nuclear repulsion after PCM non-electrostatic terms =     2416.8413769978 Hartrees.
 One-electron integrals computed using PRISM.
   1 Symmetry operations used in ECPInt.
 ECPInt:  NShTT=   26565 NPrTT=   96561 LenC2=   23469 LenP2D=   57489.
 LDataN:  DoStor=T MaxTD1= 4 Len=   56
 NBasis=   488 RedAO= T EigKep=  2.12D-04  NBF=   488
 NBsUse=   488 1.00D-06 EigRej= -1.00D+00 NBFU=   488
 Initial guess from the checkpoint file:  "02C_Si_1_C_C2_CC_N__CC_C2C_C3_C__m062x_def2SVP_ethanol.chk"
 B after Tr=     0.000000   -0.000000   -0.000000
         Rot=    1.000000   -0.000000    0.000000   -0.000000 Ang=   0.00 deg.
 Requested convergence on RMS density matrix=1.00D-08 within 128 cycles.
 Requested convergence on MAX density matrix=1.00D-06.
 Requested convergence on             energy=1.00D-06.
 No special actions if energy rises.
 Inv3:  Mode=1 IEnd=    40252707.
 Iteration    1 A*A^-1 deviation from unit magnitude is 1.07D-14 for    410.
 Iteration    1 A*A^-1 deviation from orthogonality  is 3.51D-15 for   3326    649.
 Iteration    1 A^-1*A deviation from unit magnitude is 1.04D-14 for   1531.
 Iteration    1 A^-1*A deviation from orthogonality  is 3.99D-15 for   3646   2567.
 Error on total polarization charges =  0.04866
 SCF Done:  E(RM062X) =  -1305.19381658     A.U. after    1 cycles
            NFock=  1  Conv=0.71D-08     -V/T= 2.0094
 SMD-CDS (non-electrostatic) energy       (kcal/mol) =       0.33
 (included in total energy above)
 DoSCS=F DFT=T ScalE2(SS,OS)=  1.000000  1.000000
 ExpMin= 7.80D-02 ExpMax= 6.90D+03 ExpMxC= 1.04D+03 IAcc=3 IRadAn=         5 AccDes= 0.00D+00
 HarFok:  IExCor=  205 AccDes= 0.00D+00 IRadAn=         5 IDoV=-2 UseB2=F ITyADJ=14
 ICtDFT= 12500011 ScaDFX=  1.000000  1.000000  1.000000  1.000000
 GSVD:  LWork=       -1140 too small for GESVD, short by        4950 words or        4950 for optimal perf.
 Range of M.O.s used for correlation:    31   488
 NBasis=   488 NAE=    95 NBE=    95 NFC=    30 NFV=     0
 NROrb=    458 NOA=    65 NOB=    65 NVA=   393 NVB=   393

 **** Warning!!: The largest alpha MO coefficient is  0.11451361D+02

 NEqPCM:  Using non-equilibrium solvation (IEInf=1, Eps=  24.8520, EpsInf=   1.8526)
 Inv3:  Mode=1 IEnd=    40252707.
 Iteration    1 A*A^-1 deviation from unit magnitude is 1.02D-14 for    997.
 Iteration    1 A*A^-1 deviation from orthogonality  is 2.82D-15 for   1829     56.
 Iteration    1 A^-1*A deviation from unit magnitude is 1.04D-14 for    997.
 Iteration    1 A^-1*A deviation from orthogonality  is 3.63D-15 for   1827     44.
 Orbital symmetries:
       Occupied  (A) (A) (A) (A) (A) (A) (A) (A) (A) (A) (A) (A)
                 (A) (A) (A) (A) (A) (A) (A) (A) (A) (A) (A) (A)
                 (A) (A) (A) (A) (A) (A) (A) (A) (A) (A) (A) (A)
                 (A) (A) (A) (A) (A) (A) (A) (A) (A) (A) (A) (A)
                 (A) (A) (A) (A) (A) (A) (A) (A) (A) (A) (A) (A)
                 (A) (A) (A) (A) (A) (A) (A) (A) (A) (A) (A) (A)
                 (A) (A) (A) (A) (A) (A) (A) (A) (A) (A) (A) (A)
                 (A) (A) (A) (A) (A) (A) (A) (A) (A) (A) (A)
       Virtual   (A) (A) (A) (A) (A) (A) (A) (A) (A) (A) (A) (A)
                 (A) (A) (A) (A) (A) (A) (A) (A) (A) (A) (A) (A)
                 (A) (A) (A) (A) (A) (A) (A) (A) (A) (A) (A) (A)
                 (A) (A) (A) (A) (A) (A) (A) (A) (A) (A) (A) (A)
                 (A) (A) (A) (A) (A) (A) (A) (A) (A) (A) (A) (A)
                 (A) (A) (A) (A) (A) (A) (A) (A) (A) (A) (A) (A)
                 (A) (A) (A) (A) (A) (A) (A) (A) (A) (A) (A) (A)
                 (A) (A) (A) (A) (A) (A) (A) (A) (A) (A) (A) (A)
                 (A) (A) (A) (A) (A) (A) (A) (A) (A) (A) (A) (A)
                 (A) (A) (A) (A) (A) (A) (A) (A) (A) (A) (A) (A)
                 (A) (A) (A) (A) (A) (A) (A) (A) (A) (A) (A) (A)
                 (A) (A) (A) (A) (A) (A) (A) (A) (A) (A) (A) (A)
                 (A) (A) (A) (A) (A) (A) (A) (A) (A) (A) (A) (A)
                 (A) (A) (A) (A) (A) (A) (A) (A) (A) (A) (A) (A)
                 (A) (A) (A) (A) (A) (A) (A) (A) (A) (A) (A) (A)
                 (A) (A) (A) (A) (A) (A) (A) (A) (A) (A) (A) (A)
                 (A) (A) (A) (A) (A) (A) (A) (A) (A) (A) (A) (A)
                 (A) (A) (A) (A) (A) (A) (A) (A) (A) (A) (A) (A)
                 (A) (A) (A) (A) (A) (A) (A) (A) (A) (A) (A) (A)
                 (A) (A) (A) (A) (A) (A) (A) (A) (A) (A) (A) (A)
                 (A) (A) (A) (A) (A) (A) (A) (A) (A) (A) (A) (A)
                 (A) (A) (A) (A) (A) (A) (A) (A) (A) (A) (A) (A)
                 (A) (A) (A) (A) (A) (A) (A) (A) (A) (A) (A) (A)
                 (A) (A) (A) (A) (A) (A) (A) (A) (A) (A) (A) (A)
                 (A) (A) (A) (A) (A) (A) (A) (A) (A) (A) (A) (A)
                 (A) (A) (A) (A) (A) (A) (A) (A) (A) (A) (A) (A)
                 (A) (A) (A) (A) (A) (A) (A) (A) (A) (A) (A) (A)
                 (A) (A) (A) (A) (A) (A) (A) (A) (A) (A) (A) (A)
                 (A) (A) (A) (A) (A) (A) (A) (A) (A) (A) (A) (A)
                 (A) (A) (A) (A) (A) (A) (A) (A) (A) (A) (A) (A)
                 (A) (A) (A) (A) (A) (A) (A) (A) (A) (A) (A) (A)
                 (A) (A) (A) (A) (A) (A) (A) (A) (A) (A) (A) (A)
                 (A) (A) (A) (A) (A) (A) (A) (A) (A)
    20 initial guesses have been made.
 Convergence on wavefunction:    0.001000000000000
 Iteration     1 Dimension    20 NMult     0 NNew     20
 CISAX will form    20 AO SS matrices at one time.
 New state      1 was old state      2
 New state      2 was old state      1
 New state      4 was old state      5
 New state      5 was old state      6
 Iteration     2 Dimension    30 NMult    20 NNew     10
 Iteration     3 Dimension    40 NMult    30 NNew     10
 Iteration     4 Dimension    50 NMult    40 NNew     10
 Iteration     5 Dimension    60 NMult    50 NNew     10
 Iteration     6 Dimension    64 NMult    60 NNew      4
 Iteration     7 Dimension    68 NMult    64 NNew      4
 Iteration     8 Dimension    70 NMult    68 NNew      2
 ***********************************************************************
 Excited states from <AA,BB:AA,BB> singles matrix:
 ***********************************************************************
 
 Ground to excited state transition densities written to RWF  633
 Ground to excited state transition electric dipole moments (Au):
       state          X           Y           Z        Dip. S.      Osc.
         1        -0.0305      3.0490      0.0012      9.2975      0.5799
         2        -0.0043     -2.3531      0.0082      5.5371      0.3598
         3        -0.0209     -0.2393      0.0016      0.0577      0.0053
         4         0.1402      0.0058      0.0262      0.0204      0.0020
         5         0.0168      0.3297     -0.0002      0.1090      0.0112
 Ground to excited state transition velocity dipole moments (Au):
       state          X           Y           Z        Dip. S.      Osc.
         1         0.0030     -0.2874     -0.0003      0.0826      0.5886
         2         0.0007      0.2250     -0.0010      0.0506      0.3464
         3         0.0030      0.0289     -0.0003      0.0008      0.0041
         4        -0.0254     -0.0009     -0.0042      0.0007      0.0029
         5        -0.0026     -0.0541      0.0001      0.0029      0.0126
 Ground to excited state transition magnetic dipole moments (Au):
       state          X           Y           Z
         1         0.0671      0.0052     -0.4067
         2         0.0462      0.0086      0.5909
         3        -0.0414      0.0007      0.3586
         4        -0.0020     -0.0094      0.0090
         5        -0.1417      0.0004      1.2836
 Ground to excited state transition velocity quadrupole moments (Au):
       state          XX          YY          ZZ          XY          XZ          YZ
         1         0.0020     -0.0008      0.0035      0.7993     -0.0064      0.0218
         2         0.0185     -0.0144      0.0052     -0.6188     -0.0074     -0.0404
         3         0.0176     -0.0294      0.0048     -0.0954     -0.0034      0.0033
         4         0.6595     -1.3849      0.2063      0.0111      0.0413      0.0025
         5        -0.0153      0.0446     -0.0052      0.1840      0.0001      0.0133
 <0|del|b> * <b|rxdel|0> + <0|del|b> * <b|delr+rdel|0>
 Rotatory Strengths (R) in cgs (10**-40 erg-esu-cm/Gauss)
       state          XX          YY          ZZ    R(velocity)    E-M Angle
         1       -13.0100      2.2000      1.8424     -2.9892       90.57
         2        13.1930     -4.5083      1.2304      3.3050       89.41
         3         0.1112     -0.6305     -0.5410     -0.3535       91.13
         4        -0.0875     -0.0112      0.1947      0.0320       90.00
         5         0.2116      0.9394      0.8398      0.6636       89.64
 1/2[<0|r|b>*<b|rxdel|0> + (<0|rxdel|b>*<b|r|0>)*]
 Rotatory Strengths (R) in cgs (10**-40 erg-esu-cm/Gauss)
       state          XX          YY          ZZ     R(length)
         1         1.4450    -11.2166      0.3354     -3.1454
         2         0.1411     14.3847     -3.4389      3.6956
         3        -0.6122      0.1269     -0.4122     -0.2991
         4         0.1936      0.0387     -0.1673      0.0217
         5         1.6872     -0.1006      0.2262      0.6043
  1/2[<0|del|b>*<b|r|0> + (<0|r|b>*<b|del|0>)*] (Au)
       state          X           Y           Z        Dip. S.   Osc.(frdel)
         1        -0.0001     -0.8763     -0.0000      0.8763      0.5842
         2        -0.0000     -0.5295     -0.0000      0.5295      0.3530
         3        -0.0001     -0.0069     -0.0000      0.0070      0.0046
         4        -0.0036     -0.0000     -0.0001      0.0037      0.0024
         5        -0.0000     -0.0178     -0.0000      0.0179      0.0119

 Excitation energies and oscillator strengths:
 
 Excited State   1:      Singlet-A      2.5458 eV  487.01 nm  f=0.5799  <S**2>=0.000
      95 -> 96         0.70098
 This state for optimization and/or second-order correction.
 Total Energy, E(TD-HF/TD-DFT) =  -1305.10025884    
 Copying the excited state density for this state as the 1-particle RhoCI density.
 
 Excited State   2:      Singlet-A      2.6521 eV  467.49 nm  f=0.3598  <S**2>=0.000
      94 -> 96         0.69935
 
 Excited State   3:      Singlet-A      3.7447 eV  331.09 nm  f=0.0053  <S**2>=0.000
      89 -> 96         0.12604
      93 -> 96         0.68256
 
 Excited State   4:      Singlet-A      4.0839 eV  303.59 nm  f=0.0020  <S**2>=0.000
      91 -> 96         0.57150
      92 -> 96        -0.38469
 
 Excited State   5:      Singlet-A      4.2116 eV  294.38 nm  f=0.0112  <S**2>=0.000
      90 -> 96         0.65845
      94 -> 97         0.11914
      95 -> 97        -0.18164
 SavETr:  write IOETrn=   770 NScale= 10 NData=  16 NLR=1 NState=    5 LETran=     100.

 **********************************************************************

            Population analysis using the SCF density.

 **********************************************************************

 Orbital symmetries:
       Occupied  (A) (A) (A) (A) (A) (A) (A) (A) (A) (A) (A) (A)
                 (A) (A) (A) (A) (A) (A) (A) (A) (A) (A) (A) (A)
                 (A) (A) (A) (A) (A) (A) (A) (A) (A) (A) (A) (A)
                 (A) (A) (A) (A) (A) (A) (A) (A) (A) (A) (A) (A)
                 (A) (A) (A) (A) (A) (A) (A) (A) (A) (A) (A) (A)
                 (A) (A) (A) (A) (A) (A) (A) (A) (A) (A) (A) (A)
                 (A) (A) (A) (A) (A) (A) (A) (A) (A) (A) (A) (A)
                 (A) (A) (A) (A) (A) (A) (A) (A) (A) (A) (A)
       Virtual   (A) (A) (A) (A) (A) (A) (A) (A) (A) (A) (A) (A)
                 (A) (A) (A) (A) (A) (A) (A) (A) (A) (A) (A) (A)
                 (A) (A) (A) (A) (A) (A) (A) (A) (A) (A) (A) (A)
                 (A) (A) (A) (A) (A) (A) (A) (A) (A) (A) (A) (A)
                 (A) (A) (A) (A) (A) (A) (A) (A) (A) (A) (A) (A)
                 (A) (A) (A) (A) (A) (A) (A) (A) (A) (A) (A) (A)
                 (A) (A) (A) (A) (A) (A) (A) (A) (A) (A) (A) (A)
                 (A) (A) (A) (A) (A) (A) (A) (A) (A) (A) (A) (A)
                 (A) (A) (A) (A) (A) (A) (A) (A) (A) (A) (A) (A)
                 (A) (A) (A) (A) (A) (A) (A) (A) (A) (A) (A) (A)
                 (A) (A) (A) (A) (A) (A) (A) (A) (A) (A) (A) (A)
                 (A) (A) (A) (A) (A) (A) (A) (A) (A) (A) (A) (A)
                 (A) (A) (A) (A) (A) (A) (A) (A) (A) (A) (A) (A)
                 (A) (A) (A) (A) (A) (A) (A) (A) (A) (A) (A) (A)
                 (A) (A) (A) (A) (A) (A) (A) (A) (A) (A) (A) (A)
                 (A) (A) (A) (A) (A) (A) (A) (A) (A) (A) (A) (A)
                 (A) (A) (A) (A) (A) (A) (A) (A) (A) (A) (A) (A)
                 (A) (A) (A) (A) (A) (A) (A) (A) (A) (A) (A) (A)
                 (A) (A) (A) (A) (A) (A) (A) (A) (A) (A) (A) (A)
                 (A) (A) (A) (A) (A) (A) (A) (A) (A) (A) (A) (A)
                 (A) (A) (A) (A) (A) (A) (A) (A) (A) (A) (A) (A)
                 (A) (A) (A) (A) (A) (A) (A) (A) (A) (A) (A) (A)
                 (A) (A) (A) (A) (A) (A) (A) (A) (A) (A) (A) (A)
                 (A) (A) (A) (A) (A) (A) (A) (A) (A) (A) (A) (A)
                 (A) (A) (A) (A) (A) (A) (A) (A) (A) (A) (A) (A)
                 (A) (A) (A) (A) (A) (A) (A) (A) (A) (A) (A) (A)
                 (A) (A) (A) (A) (A) (A) (A) (A) (A) (A) (A) (A)
                 (A) (A) (A) (A) (A) (A) (A) (A) (A) (A) (A) (A)
                 (A) (A) (A) (A) (A) (A) (A) (A) (A) (A) (A) (A)
                 (A) (A) (A) (A) (A) (A) (A) (A) (A) (A) (A) (A)
                 (A) (A) (A) (A) (A) (A) (A) (A) (A) (A) (A) (A)
                 (A) (A) (A) (A) (A) (A) (A) (A) (A) (A) (A) (A)
                 (A) (A) (A) (A) (A) (A) (A) (A) (A)
 The electronic state is 1-A.
 Alpha  occ. eigenvalues --  -67.01532 -14.79659 -14.79657 -14.75675 -10.63329
 Alpha  occ. eigenvalues --  -10.63328 -10.61961 -10.59776 -10.57977 -10.57961
 Alpha  occ. eigenvalues --  -10.57846 -10.57840 -10.57143 -10.57004 -10.57001
 Alpha  occ. eigenvalues --  -10.56647 -10.56643 -10.56569 -10.56554 -10.55855
 Alpha  occ. eigenvalues --  -10.55654 -10.55462 -10.54999 -10.54597 -10.53304
 Alpha  occ. eigenvalues --  -10.53304  -5.55177  -3.86488  -3.86409  -3.86367
 Alpha  occ. eigenvalues --   -1.05123  -1.05103  -1.01396  -0.98132  -0.94681
 Alpha  occ. eigenvalues --   -0.94057  -0.89207  -0.85908  -0.85009  -0.84364
 Alpha  occ. eigenvalues --   -0.82922  -0.82596  -0.79006  -0.76484  -0.76026
 Alpha  occ. eigenvalues --   -0.74768  -0.71927  -0.70696  -0.69862  -0.69061
 Alpha  occ. eigenvalues --   -0.66680  -0.64252  -0.62454  -0.62053  -0.61443
 Alpha  occ. eigenvalues --   -0.59880  -0.58652  -0.58132  -0.57536  -0.54132
 Alpha  occ. eigenvalues --   -0.53314  -0.52169  -0.51595  -0.51300  -0.51090
 Alpha  occ. eigenvalues --   -0.50790  -0.49369  -0.49103  -0.48689  -0.48622
 Alpha  occ. eigenvalues --   -0.48021  -0.47527  -0.47491  -0.46694  -0.45792
 Alpha  occ. eigenvalues --   -0.45528  -0.45496  -0.45079  -0.44292  -0.43725
 Alpha  occ. eigenvalues --   -0.43565  -0.43193  -0.41229  -0.39718  -0.39378
 Alpha  occ. eigenvalues --   -0.37679  -0.37055  -0.36148  -0.35520  -0.33184
 Alpha  occ. eigenvalues --   -0.32482  -0.31210  -0.30880  -0.25479  -0.25043
 Alpha virt. eigenvalues --   -0.09311  -0.00149   0.00962   0.02023   0.02502
 Alpha virt. eigenvalues --    0.04372   0.08243   0.08522   0.10433   0.10696
 Alpha virt. eigenvalues --    0.10813   0.11225   0.11385   0.11940   0.12985
 Alpha virt. eigenvalues --    0.13139   0.13427   0.13545   0.14489   0.15069
 Alpha virt. eigenvalues --    0.15504   0.16258   0.16841   0.17298   0.17523
 Alpha virt. eigenvalues --    0.17798   0.18162   0.18986   0.19272   0.20064
 Alpha virt. eigenvalues --    0.20182   0.21186   0.21689   0.21886   0.22661
 Alpha virt. eigenvalues --    0.23081   0.23990   0.24611   0.25822   0.27206
 Alpha virt. eigenvalues --    0.27839   0.28387   0.28948   0.29165   0.30165
 Alpha virt. eigenvalues --    0.31080   0.31819   0.33099   0.33509   0.34088
 Alpha virt. eigenvalues --    0.34632   0.34771   0.34864   0.36335   0.36662
 Alpha virt. eigenvalues --    0.37759   0.38610   0.38872   0.40542   0.41558
 Alpha virt. eigenvalues --    0.41755   0.42634   0.43255   0.43647   0.44089
 Alpha virt. eigenvalues --    0.44391   0.45014   0.45641   0.45826   0.46663
 Alpha virt. eigenvalues --    0.48020   0.48610   0.49827   0.49868   0.50782
 Alpha virt. eigenvalues --    0.50921   0.51372   0.51560   0.52179   0.52766
 Alpha virt. eigenvalues --    0.52987   0.53456   0.54343   0.54677   0.56416
 Alpha virt. eigenvalues --    0.56637   0.57836   0.58001   0.58257   0.58563
 Alpha virt. eigenvalues --    0.59523   0.59982   0.61156   0.61404   0.62151
 Alpha virt. eigenvalues --    0.62522   0.63143   0.63491   0.64340   0.64666
 Alpha virt. eigenvalues --    0.65054   0.65636   0.66414   0.66814   0.67869
 Alpha virt. eigenvalues --    0.68122   0.68579   0.69137   0.69653   0.70141
 Alpha virt. eigenvalues --    0.70499   0.71103   0.71450   0.71625   0.72118
 Alpha virt. eigenvalues --    0.72154   0.72397   0.73040   0.73256   0.73696
 Alpha virt. eigenvalues --    0.74236   0.74359   0.74877   0.75179   0.75928
 Alpha virt. eigenvalues --    0.76129   0.76448   0.77337   0.77446   0.77816
 Alpha virt. eigenvalues --    0.78161   0.78396   0.79211   0.79880   0.80253
 Alpha virt. eigenvalues --    0.80366   0.81007   0.81245   0.81342   0.81900
 Alpha virt. eigenvalues --    0.82827   0.83192   0.83557   0.84105   0.85008
 Alpha virt. eigenvalues --    0.85390   0.85399   0.86387   0.86685   0.87759
 Alpha virt. eigenvalues --    0.88063   0.88593   0.89056   0.90336   0.90466
 Alpha virt. eigenvalues --    0.90575   0.91379   0.91414   0.93177   0.94353
 Alpha virt. eigenvalues --    0.94741   0.96054   0.96679   0.97266   0.98573
 Alpha virt. eigenvalues --    1.00910   1.01025   1.01474   1.02013   1.04958
 Alpha virt. eigenvalues --    1.05531   1.07964   1.08721   1.10751   1.11596
 Alpha virt. eigenvalues --    1.12881   1.16335   1.17603   1.17986   1.21380
 Alpha virt. eigenvalues --    1.22157   1.23737   1.26371   1.26548   1.26925
 Alpha virt. eigenvalues --    1.27292   1.27633   1.28516   1.28936   1.29329
 Alpha virt. eigenvalues --    1.29585   1.29929   1.30529   1.31335   1.31924
 Alpha virt. eigenvalues --    1.32287   1.32442   1.32984   1.33989   1.34312
 Alpha virt. eigenvalues --    1.35817   1.36311   1.37527   1.37794   1.37956
 Alpha virt. eigenvalues --    1.39410   1.40166   1.41993   1.44408   1.47127
 Alpha virt. eigenvalues --    1.48794   1.51579   1.53005   1.54288   1.55499
 Alpha virt. eigenvalues --    1.56527   1.56990   1.58358   1.59092   1.59554
 Alpha virt. eigenvalues --    1.60079   1.60838   1.61743   1.63053   1.65496
 Alpha virt. eigenvalues --    1.67126   1.67593   1.68900   1.71902   1.72887
 Alpha virt. eigenvalues --    1.73441   1.75319   1.75460   1.75693   1.76431
 Alpha virt. eigenvalues --    1.77200   1.78043   1.78222   1.78643   1.79029
 Alpha virt. eigenvalues --    1.79284   1.79589   1.80294   1.80378   1.81125
 Alpha virt. eigenvalues --    1.81301   1.81358   1.82016   1.82386   1.82938
 Alpha virt. eigenvalues --    1.82994   1.83866   1.84245   1.85001   1.85712
 Alpha virt. eigenvalues --    1.86688   1.86976   1.87445   1.87709   1.88119
 Alpha virt. eigenvalues --    1.88369   1.88916   1.89615   1.90524   1.91360
 Alpha virt. eigenvalues --    1.92216   1.93481   1.94255   1.95247   1.96018
 Alpha virt. eigenvalues --    1.96709   1.97553   1.97979   1.98244   1.98793
 Alpha virt. eigenvalues --    1.98988   1.99636   2.00117   2.01597   2.02342
 Alpha virt. eigenvalues --    2.03361   2.04370   2.04703   2.05041   2.06274
 Alpha virt. eigenvalues --    2.08346   2.08773   2.09896   2.12855   2.13414
 Alpha virt. eigenvalues --    2.14708   2.15995   2.16987   2.17211   2.17748
 Alpha virt. eigenvalues --    2.18206   2.18981   2.20190   2.20400   2.21049
 Alpha virt. eigenvalues --    2.21563   2.21920   2.22472   2.24269   2.24764
 Alpha virt. eigenvalues --    2.25124   2.26128   2.26544   2.27039   2.27166
 Alpha virt. eigenvalues --    2.27320   2.29315   2.30685   2.30969   2.31875
 Alpha virt. eigenvalues --    2.32511   2.33364   2.34753   2.35311   2.36837
 Alpha virt. eigenvalues --    2.37197   2.37946   2.40598   2.40756   2.42422
 Alpha virt. eigenvalues --    2.43502   2.44144   2.44839   2.46695   2.47070
 Alpha virt. eigenvalues --    2.47931   2.49617   2.50816   2.50888   2.51786
 Alpha virt. eigenvalues --    2.55339   2.56725   2.57821   2.58263   2.61235
 Alpha virt. eigenvalues --    2.62033   2.64859   2.65526   2.66986   2.67675
 Alpha virt. eigenvalues --    2.68282   2.68997   2.69776   2.70246   2.70971
 Alpha virt. eigenvalues --    2.71166   2.72218   2.73281   2.75414   2.75591
 Alpha virt. eigenvalues --    2.76108   2.81812   2.82080   2.82448   2.84181
 Alpha virt. eigenvalues --    2.85438   2.86352   2.87925   2.88394   2.89232
 Alpha virt. eigenvalues --    2.89465   2.92781   2.93327   2.94286   2.94407
 Alpha virt. eigenvalues --    2.94880   2.95139   2.96405   2.96694   3.01326
 Alpha virt. eigenvalues --    3.02308   3.05948   3.07180   3.09155   3.10241
 Alpha virt. eigenvalues --    3.11483   3.14059   3.19691   3.20405   3.22196
 Alpha virt. eigenvalues --    3.23354   3.25713   3.50021   3.53786   3.55231
 Alpha virt. eigenvalues --    3.56655   3.57561   3.59318
          Condensed to atoms (all electrons):
               1          2          3          4          5          6
     1  C    4.815088   0.475818  -0.049565  -0.030476  -0.006065   0.000056
     2  Si   0.475818  12.131652   0.473730   0.312280  -0.036581   0.000798
[...]
    48  H    0.459206  -0.000076  -0.000000   0.000000   0.000000   0.000000
    49  H   -0.000452   0.368107  -0.000000  -0.000000   0.000000  -0.000001
    50  H    0.000450   0.365981   0.000000  -0.000000  -0.000000  -0.000000
              31         32         33         34         35         36
     1  C    0.002960  -0.001690  -0.001547   0.000001  -0.000000  -0.000000
     2  Si  -0.009666  -0.016443   0.002301  -0.000099   0.000028   0.000027
     3  C    0.370429   0.374823  -0.001562   0.000001  -0.000000  -0.000000
     4  C   -0.002108  -0.003147  -0.076894   0.000498  -0.000496  -0.002402
     5  C    0.000252   0.002459   0.459412  -0.029799   0.012948   0.014883
     6  C   -0.000012  -0.000114  -0.073962   0.003541   0.002701  -0.080043
     7  N   -0.000000  -0.000004  -0.008880   0.368130   0.365995  -0.010566
     8  C   -0.000002   0.000006   0.014084   0.011983  -0.027311   0.464490
     9  C   -0.000004  -0.000006  -0.002223  -0.000451   0.000449  -0.059037
    10  C    0.000385  -0.000208   0.015351  -0.000008  -0.000033   0.016042
    11  C   -0.000071  -0.000012  -0.000326  -0.000000  -0.000001  -0.000322
    12  C   -0.000005   0.000000   0.000007   0.000000  -0.000000   0.000061
    13  C   -0.000000  -0.000000   0.000000  -0.000000   0.000000   0.000018
    14  C    0.000005   0.000000   0.000000   0.000000  -0.000000   0.000003
    15  C    0.000000  -0.000000   0.000000  -0.000000   0.000000  -0.000001
    16  C   -0.000000   0.000000  -0.000000   0.000000  -0.000000  -0.000001
    17  C   -0.000000   0.000000   0.000000   0.000000   0.000000  -0.000001
    18  N   -0.000000   0.000000  -0.000000  -0.000000   0.000000   0.000000
    19  C    0.000000  -0.000000   0.000000  -0.000000  -0.000000   0.000018
    20  C    0.000383  -0.000049   0.000057  -0.000000   0.000000   0.000005
    21  C   -0.002115   0.003236   0.000267   0.000000  -0.000000   0.000000
    22  C    0.000251  -0.000018  -0.000016  -0.000000   0.000000   0.000000
    23  C   -0.000012   0.000012   0.000000   0.000000  -0.000000   0.000000
    24  C   -0.000002  -0.000000  -0.000000   0.000000   0.000000  -0.000000
    25  C   -0.000004   0.000003   0.000001  -0.000000  -0.000000  -0.000000
    26  N   -0.000000  -0.000000  -0.000000  -0.000000   0.000000   0.000000
    27  H   -0.000095   0.000820   0.000730  -0.000000  -0.000000  -0.000000
    28  H   -0.000095  -0.000099  -0.000120  -0.000000   0.000000   0.000000
    29  H   -0.000080  -0.000093  -0.000031   0.000000  -0.000000  -0.000000
    30  H   -0.013264  -0.011542  -0.000128  -0.000000   0.000000   0.000000
    31  H    0.572711  -0.013268  -0.000042   0.000000  -0.000000  -0.000000
    32  H   -0.013268   0.574967   0.000863  -0.000001  -0.000000  -0.000000
    33  H   -0.000042   0.000863   0.617953   0.005782  -0.000425  -0.000176
    34  H    0.000000  -0.000001   0.005782   0.480019  -0.027175  -0.000269
    35  H   -0.000000  -0.000000  -0.000425  -0.027175   0.480913   0.004520
    36  H   -0.000000  -0.000000  -0.000176  -0.000269   0.004520   0.623439
    37  H    0.000000   0.000000   0.000018   0.000010  -0.000023  -0.013333
    38  H   -0.000000   0.000000  -0.000000   0.000000   0.000000  -0.000000
    39  H    0.000009  -0.000000  -0.000001   0.000000  -0.000000  -0.000006
    40  H    0.000008  -0.000000   0.000000   0.000000   0.000000   0.000000
    41  H   -0.000000   0.000000  -0.000000  -0.000000   0.000000   0.000000
    42  H    0.000000   0.000000  -0.000000   0.000000  -0.000000   0.000000
    43  H    0.000000  -0.000000   0.000000  -0.000000   0.000000   0.000000
    44  H   -0.000000   0.000000   0.000000   0.000000  -0.000000   0.000000
    45  H   -0.000000   0.000000  -0.000000   0.000000  -0.000000   0.000001
    46  H   -0.000042  -0.000128  -0.000002  -0.000000   0.000000   0.000000
    47  H   -0.000000   0.000000   0.000000   0.000000  -0.000000  -0.000000
    48  H    0.000000  -0.000000  -0.000000  -0.000000   0.000000  -0.000000
    49  H    0.000000  -0.000000  -0.000000  -0.000000   0.000000   0.000000
    50  H   -0.000000   0.000000   0.000000   0.000000  -0.000000  -0.000000
              37         38         39         40         41         42
     1  C    0.000001   0.000000  -0.000000  -0.000000  -0.000000   0.000000
     2  Si  -0.000235  -0.000009   0.000086   0.000078   0.000000  -0.000000
     3  C    0.000001   0.000000   0.000000   0.000000   0.000000  -0.000000
     4  C    0.014547   0.000014  -0.000499  -0.000008  -0.000000   0.000000
     5  C   -0.002467  -0.000001  -0.000020   0.000003   0.000000  -0.000000
     6  C    0.016004   0.000000   0.000014  -0.000000   0.000000  -0.000000
     7  N   -0.000077   0.000000  -0.000000  -0.000000  -0.000000   0.000000
     8  C   -0.071657  -0.000008   0.000219   0.000018  -0.000000  -0.000000
     9  C    0.459134  -0.000031   0.004148   0.000004  -0.000009  -0.000002
    10  C   -0.052499   0.000115  -0.000319  -0.001666  -0.000006   0.000001
    11  C   -0.037609  -0.000522   0.012758   0.012258  -0.000242   0.000017
    12  C    0.008963   0.012973  -0.018169  -0.017513   0.019280  -0.002669
    13  C   -0.002144  -0.014240  -0.004189  -0.004522  -0.074600   0.016859
    14  C   -0.000397   0.386655   0.374550   0.374646  -0.017012  -0.000248
    15  C    0.000274  -0.013874   0.003688   0.003709   0.462354  -0.068703
    16  C    0.001282   0.000450  -0.000406  -0.000457  -0.074344   0.464443
    17  C    0.000411  -0.000026   0.000038   0.000076   0.016009  -0.081410
    18  N   -0.000054  -0.000000  -0.000000  -0.000000  -0.000091  -0.010989
    19  C    0.000324  -0.000320  -0.000046  -0.000119  -0.002507   0.017518
    20  C    0.000418   0.000115  -0.001735  -0.000266  -0.000006   0.000000
    21  C   -0.000037   0.000014  -0.000012  -0.000495  -0.000000   0.000000
    22  C   -0.000001  -0.000001   0.000003  -0.000018   0.000000   0.000000
    23  C   -0.000000   0.000000  -0.000000   0.000013   0.000000  -0.000000
    24  C    0.000000  -0.000008   0.000019   0.000236  -0.000000  -0.000000
    25  C   -0.000008  -0.000029   0.000002   0.004173  -0.000010  -0.000000
    26  N   -0.000000   0.000000  -0.000000  -0.000000  -0.000000  -0.000000
    27  H    0.000000   0.000000   0.000000  -0.000000  -0.000000   0.000000
    28  H   -0.000000   0.000000  -0.000000   0.000000  -0.000000   0.000000
    29  H    0.000000   0.000000  -0.000000  -0.000000   0.000000  -0.000000
    30  H   -0.000000   0.000000  -0.000000  -0.000000   0.000000   0.000000
    31  H    0.000000  -0.000000   0.000009   0.000008  -0.000000   0.000000
    32  H    0.000000   0.000000  -0.000000  -0.000000   0.000000   0.000000
    33  H    0.000018  -0.000000  -0.000001   0.000000  -0.000000  -0.000000
    34  H    0.000010   0.000000   0.000000   0.000000  -0.000000   0.000000
    35  H   -0.000023   0.000000  -0.000000   0.000000   0.000000  -0.000000
    36  H   -0.013333  -0.000000  -0.000006   0.000000   0.000000   0.000000
    37  H    0.616609   0.000017  -0.000186   0.000037  -0.000013  -0.000008
    38  H    0.000017   0.607067  -0.019007  -0.018933   0.006710  -0.000005
    39  H   -0.000186  -0.019007   0.618554  -0.021921   0.000325   0.000008
    40  H    0.000037  -0.018933  -0.021921   0.618202   0.000326   0.000006
    41  H   -0.000013   0.006710   0.000325   0.000326   0.644093  -0.012259
    42  H   -0.000008  -0.000005   0.000008   0.000006  -0.012259   0.647968
    43  H   -0.000009   0.000000  -0.000000   0.000000   0.000011  -0.000303
    44  H   -0.000005  -0.000000  -0.000000   0.000000  -0.000017   0.004872
    45  H   -0.000115   0.000007  -0.000005  -0.000010   0.000012  -0.000189
    46  H   -0.000000  -0.000000   0.000000  -0.000001  -0.000000  -0.000000
    47  H   -0.000000  -0.000000   0.000000  -0.000005   0.000000   0.000000
    48  H    0.000012   0.000017   0.000044  -0.000225  -0.000013  -0.000012
    49  H   -0.000000   0.000000   0.000000   0.000000  -0.000000   0.000000
    50  H    0.000000   0.000000   0.000000  -0.000000   0.000000  -0.000000
              43         44         45         46         47         48
     1  C   -0.000000  -0.000000  -0.000002  -0.001547  -0.000000   0.000001
     2  Si   0.000000  -0.000000   0.000077   0.002270   0.000027  -0.000235
     3  C   -0.000000   0.000000   0.000000  -0.001550  -0.000000   0.000001
     4  C   -0.000000   0.000000  -0.000319   0.000267   0.000000  -0.000036
     5  C    0.000000   0.000000   0.000005  -0.000016   0.000000  -0.000001
     6  C   -0.000000  -0.000000  -0.000004   0.000000   0.000000  -0.000000
     7  N   -0.000000   0.000000  -0.000000  -0.000000   0.000000  -0.000000
     8  C    0.000000   0.000000   0.000006  -0.000000  -0.000000   0.000000
     9  C    0.000006   0.000001   0.000929   0.000001  -0.000000  -0.000009
    10  C   -0.000014  -0.000001  -0.000142   0.000057   0.000005   0.000431
    11  C    0.000002   0.000014  -0.005964  -0.000326  -0.000323  -0.037529
    12  C    0.000712  -0.000571  -0.080523   0.000007   0.000061   0.009097
    13  C   -0.000043  -0.000014   0.016624   0.000000   0.000018  -0.002054
    14  C   -0.000001  -0.000001  -0.000161   0.000000   0.000003  -0.000425
    15  C   -0.000437   0.000455  -0.003240   0.000000  -0.000001   0.000301
    16  C    0.010421  -0.023026   0.017423  -0.000000  -0.000001   0.001203
    17  C   -0.004372  -0.004605  -0.074205   0.000000  -0.000002   0.000536
    18  N    0.367480   0.364549  -0.010638  -0.000000   0.000000  -0.000061
    19  C   -0.025170   0.011607   0.471110   0.000000   0.000019  -0.000140
    20  C    0.000004   0.000000  -0.000624   0.015361   0.016055  -0.052511
    21  C   -0.000000   0.000000  -0.000335  -0.076936  -0.002402   0.014506
    22  C   -0.000000  -0.000000   0.000006   0.459481   0.014871  -0.002461
    23  C    0.000000  -0.000000  -0.000005  -0.073969  -0.080150   0.015993
    24  C   -0.000000  -0.000000   0.000022   0.014076   0.464524  -0.071386
    25  C   -0.000000  -0.000000   0.000988  -0.002224  -0.058913   0.459206
    26  N   -0.000000   0.000000  -0.000000  -0.008874  -0.010567  -0.000076
    27  H    0.000000   0.000000  -0.000000  -0.000119   0.000000  -0.000000
    28  H    0.000000  -0.000000  -0.000000   0.000724  -0.000000   0.000000
    29  H   -0.000000   0.000000   0.000004  -0.000030  -0.000000   0.000000
    30  H   -0.000000   0.000000   0.000000   0.000857  -0.000000   0.000000
    31  H    0.000000  -0.000000  -0.000000  -0.000042  -0.000000   0.000000
    32  H   -0.000000   0.000000   0.000000  -0.000128   0.000000  -0.000000
    33  H    0.000000   0.000000  -0.000000  -0.000002   0.000000  -0.000000
    34  H   -0.000000   0.000000   0.000000  -0.000000   0.000000  -0.000000
    35  H    0.000000  -0.000000  -0.000000   0.000000  -0.000000   0.000000
    36  H    0.000000   0.000000   0.000001   0.000000  -0.000000  -0.000000
    37  H   -0.000009  -0.000005  -0.000115  -0.000000  -0.000000   0.000012
    38  H    0.000000  -0.000000   0.000007  -0.000000  -0.000000   0.000017
    39  H   -0.000000  -0.000000  -0.000005   0.000000   0.000000   0.000044
    40  H    0.000000   0.000000  -0.000010  -0.000001  -0.000005  -0.000225
    41  H    0.000011  -0.000017   0.000012  -0.000000   0.000000  -0.000013
    42  H   -0.000303   0.004872  -0.000189  -0.000000   0.000000  -0.000012
    43  H    0.511658  -0.026436   0.004613  -0.000000  -0.000000   0.000007
    44  H   -0.026436   0.511569  -0.000320   0.000000   0.000000  -0.000000
    45  H    0.004613  -0.000320   0.643853  -0.000000   0.000001  -0.000180
    46  H   -0.000000   0.000000  -0.000000   0.618026  -0.000176   0.000018
    47  H   -0.000000   0.000000   0.000001  -0.000176   0.623216  -0.013333
    48  H    0.000007  -0.000000  -0.000180   0.000018  -0.013333   0.615663
    49  H   -0.000000   0.000000   0.000000   0.005773  -0.000269   0.000010
    50  H   -0.000000  -0.000000  -0.000000  -0.000424   0.004516  -0.000023
              49         50
     1  C    0.000001  -0.000000
     2  Si  -0.000099   0.000028
     3  C    0.000001  -0.000000
     4  C    0.000000  -0.000000
     5  C   -0.000000   0.000000
     6  C    0.000000  -0.000000
     7  N   -0.000000   0.000000
     8  C    0.000000   0.000000
     9  C   -0.000000  -0.000000
    10  C   -0.000000   0.000000
    11  C   -0.000000  -0.000001
    12  C    0.000000  -0.000000
    13  C   -0.000000   0.000000
    14  C    0.000000  -0.000000
    15  C   -0.000000   0.000000
    16  C    0.000000  -0.000000
    17  C    0.000000  -0.000000
    18  N   -0.000000   0.000000
    19  C   -0.000000  -0.000000
    20  C   -0.000008  -0.000033
    21  C    0.000497  -0.000496
    22  C   -0.029790   0.012941
    23  C    0.003547   0.002709
    24  C    0.011979  -0.027306
    25  C   -0.000452   0.000450
    26  N    0.368107   0.365981
    27  H   -0.000000   0.000000
    28  H   -0.000000  -0.000000
    29  H    0.000000  -0.000000
    30  H   -0.000001  -0.000000
    31  H    0.000000  -0.000000
    32  H   -0.000000   0.000000
    33  H   -0.000000   0.000000
    34  H   -0.000000   0.000000
    35  H    0.000000  -0.000000
    36  H    0.000000  -0.000000
    37  H   -0.000000   0.000000
    38  H    0.000000   0.000000
    39  H    0.000000   0.000000
    40  H    0.000000  -0.000000
    41  H   -0.000000   0.000000
    42  H    0.000000  -0.000000
    43  H   -0.000000  -0.000000
    44  H    0.000000  -0.000000
    45  H    0.000000  -0.000000
    46  H    0.005773  -0.000424
    47  H   -0.000269   0.004516
    48  H    0.000010  -0.000023
    49  H    0.479985  -0.027168
    50  H   -0.027168   0.480784
 Mulliken charges:
               1
     1  C   -0.284285
     2  Si   0.505644
     3  C   -0.286477
     4  C   -0.168968
     5  C   -0.080976
     6  C    0.058981
     7  N   -0.062485
     8  C   -0.042894
     9  C   -0.009410
    10  C    0.007478
    11  C    0.018003
    12  C   -0.159984
    13  C   -0.111834
    14  C    0.076034
    15  C   -0.085577
    16  C   -0.065656
    17  C    0.039396
    18  N   -0.168190
    19  C   -0.048177
    20  C    0.007293
    21  C   -0.168910
    22  C   -0.080795
    23  C    0.059021
    24  C   -0.042725
    25  C   -0.008914
    26  N   -0.062159
    27  H    0.089249
    28  H    0.089321
    29  H    0.093123
    30  H    0.089667
    31  H    0.093492
    32  H    0.089634
    33  H    0.049507
    34  H    0.187838
    35  H    0.187912
    36  H    0.042651
    37  H    0.062813
    38  H    0.052859
    39  H    0.052058
    40  H    0.052364
    41  H    0.032010
    42  H    0.025106
    43  H    0.161871
    44  H    0.161928
    45  H    0.021300
    46  H    0.049444
    47  H    0.042826
    48  H    0.063666
    49  H    0.187886
    50  H    0.188043
 Sum of Mulliken charges =   1.00000
 Mulliken charges with hydrogens summed into heavy atoms:
               1
     1  C   -0.012593
     2  Si   0.505644
     3  C   -0.013684
     4  C   -0.168968
     5  C   -0.031469
     6  C    0.058981
     7  N    0.313264
     8  C   -0.000243
     9  C    0.053403
    10  C    0.007478
    11  C    0.018003
    12  C   -0.159984
    13  C   -0.111834
    14  C    0.233314
    15  C   -0.053567
    16  C   -0.040550
    17  C    0.039396
    18  N    0.155609
    19  C   -0.026877
    20  C    0.007293
    21  C   -0.168910
    22  C   -0.031351
    23  C    0.059021
    24  C    0.000101
    25  C    0.054752
    26  N    0.313770
 Electronic spatial extent (au):  <R**2>=           9753.2765
 Charge=              1.0000 electrons
 Dipole moment (field-independent basis, Debye):
    X=             -5.6546    Y=             -1.1477    Z=             -1.6984  Tot=              6.0147
 Quadrupole moment (field-independent basis, Debye-Ang):
   XX=           -101.2447   YY=            -46.4566   ZZ=           -152.8317
   XY=             -6.2110   XZ=             -4.7777   YZ=              3.0432
 Traceless Quadrupole moment (field-independent basis, Debye-Ang):
   XX=             -1.0670   YY=             53.7211   ZZ=            -52.6540
   XY=             -6.2110   XZ=             -4.7777   YZ=              3.0432
 Octapole moment (field-independent basis, Debye-Ang**2):
  XXX=             26.1478  YYY=             -3.2488  ZZZ=            -23.0799  XYY=           -210.6921
  XXY=            -28.5070  XXZ=            -50.2048  XZZ=             47.3349  YZZ=             -8.6709
  YYZ=             -5.8634  XYZ=             15.8507
 Hexadecapole moment (field-independent basis, Debye-Ang**3):
 XXXX=          -5181.9319 YYYY=          -1511.7125 ZZZZ=          -1092.2290 XXXY=           -166.4108
 XXXZ=           -238.1305 YYYX=            -17.4617 YYYZ=             -1.7740 ZZZX=           -107.0514
 ZZZY=             25.8129 XXYY=          -1451.1157 XXZZ=          -1117.9832 YYZZ=          -1194.6052
 XXYZ=             78.9221 YYXZ=             31.3297 ZZXY=            -42.4794
 N-N= 2.416841376998D+03 E-N=-7.854206340621D+03  KE= 1.293063778609D+03
 1\1\GINC-X1003C1S2B1N1\SP\RM062X TD-FC\def2SVP\C22H24N3Si1(1+)\XIAOGAN
 4\22-Dec-2025\0\\# m062x/def2SVP TD=(NStates=5, Root=1) SCRF=(SMD, sol
 vent=Ethanol) geom=check guess=read\\Step2 Abs m062x/def2SVP\\1,1\C,0,
 -3.7760750013,1.0681430273,1.1267267248\Si,0,-2.5515016196,0.926195880
 7,-0.2812496947\C,0,-3.2898283497,1.5047676296,-1.900194681\C,0,-0.983
 8077445,1.8885938084,0.1115174083\C,0,-1.0693025769,3.2528922183,0.269
 1473894\C,0,0.0745403292,4.0507429636,0.5700236239\N,0,-0.0344242955,5
 .3700649469,0.720737469\C,0,1.3300861965,3.3952292734,0.7029475145\C,0
 ,1.4190704839,2.0368467922,0.5509456513\C,0,0.2816634674,1.2205620458,
 0.2522335015\C,0,0.4577988078,-0.188620986,0.1015198404\C,0,1.84847251
 61,-0.7105203168,0.3096021414\C,0,2.7358476298,-0.8041534651,-0.776521
 0307\C,0,2.3246184327,-0.3905157228,-2.1645460913\C,0,4.017495565,-1.2
 97750816,-0.5054846306\C,0,4.4097013415,-1.6836229932,0.7719209401\C,0
 ,3.5160534832,-1.5902095148,1.8535249676\N,0,3.8722963709,-2.019440496
 6,3.1152324582\C,0,2.2262167283,-1.0927542061,1.5964967816\C,0,-0.5396
 347132,-1.1583544329,-0.2207306446\C,0,-1.9260644307,-0.8411817387,-0.
 4328105802\C,0,-2.8252247385,-1.8349170746,-0.7448374963\C,0,-2.427644
 1453,-3.1992561418,-0.8722963662\C,0,-1.0558174951,-3.5170189486,-0.66
 98271111\C,0,-0.1580866672,-2.5316040378,-0.3553713119\N,0,-3.31768253
 76,-4.1442438285,-1.1720084567\H,0,-4.0970581201,2.1140252987,1.251819
 0297\H,0,-4.6700616465,0.4592434867,0.9203796181\H,0,-3.3311157035,0.7
 246275806,2.0725690897\H,0,-4.1762093625,0.9032072067,-2.1551871578\H,
 0,-2.5607321896,1.4160423932,-2.7194266638\H,0,-3.6033925497,2.5576532
 239,-1.8246818008\H,0,-2.0283622862,3.7704601679,0.1664250268\H,0,-0.9
 327815475,5.83164051,0.6268638925\H,0,0.7785077815,5.9385812347,0.9323
 301628\H,0,2.2173374109,3.9887168005,0.9297200738\H,0,2.3987000925,1.5
 718117857,0.6625307521\H,0,3.1519052825,-0.5313507498,-2.8728435162\H,
 0,2.0247242309,0.6691175358,-2.1975934105\H,0,1.465695865,-0.980158343
 7,-2.5230100722\H,0,4.733929512,-1.3800922259,-1.3267882168\H,0,5.4190
 614625,-2.0636946863,0.9445008779\H,0,3.333278826,-1.6360219024,3.8847
 103206\H,0,4.8681729934,-2.0565770977,3.3062688257\H,0,1.5112041666,-1
 .0063120429,2.4188421539\H,0,-3.8829222559,-1.6036826106,-0.9058472572
 \H,0,-0.731512539,-4.5545731707,-0.7653655725\H,0,0.8834753181,-2.8163
 351472,-0.2056208737\H,0,-4.294989284,-3.9120003785,-1.3128849425\H,0,
 -3.0356224944,-5.1142027344,-1.2644086561\\Version=ES64L-G16RevA.03\St
 ate=1-A\HF=-1305.1938166\RMSD=7.118e-09\PG=C01 [X(C22H24N3Si1)]\\@


 PERICLES, SOPHOCLES,
 PELOPONESIAN WAR,
 FRENCH VERBS, LATIN VERBS
 H2SO4.
 Job cpu time:       0 days  3 hours 58 minutes 58.8 seconds.
 Elapsed time:       0 days  0 hours  3 minutes 50.9 seconds.
 File lengths (MBytes):  RWF=   1817 Int=      0 D2E=      0 Chk=     71 Scr=      1
 Normal termination of Gaussian 16 at Mon Dec 22 18:04:51 2025.
