 Entering Gaussian System, Link 0=g16
 Initial command:
 /home/users/ntu/xiaogan4/Softwares/g16/l1.exe "/scratch/users/ntu/xiaogan4/g16scratch/Gau-2254102.inp" -scrdir="/scratch/users/ntu/xiaogan4/g16scratch/"
 Entering Link 1 = /home/users/ntu/xiaogan4/Softwares/g16/l1.exe PID=   2254103.
  
 Copyright (c) 1988,1990,1992,1993,1995,1998,2003,2009,2016,
            Gaussian, Inc.  All Rights Reserved.
  
 This is part of the Gaussian(R) 16 program.  It is based on
 the Gaussian(R) 09 system (copyright 2009, Gaussian, Inc.),
 the Gaussian(R) 03 system (copyright 2003, Gaussian, Inc.),
 the Gaussian(R) 98 system (copyright 1998, Gaussian, Inc.),
 the Gaussian(R) 94 system (copyright 1995, Gaussian, Inc.),
 the Gaussian 92(TM) system (copyright 1992, Gaussian, Inc.),
 the Gaussian 90(TM) system (copyright 1990, Gaussian, Inc.),
 the Gaussian 88(TM) system (copyright 1988, Gaussian, Inc.),
 the Gaussian 86(TM) system (copyright 1986, Carnegie Mellon
 University), and the Gaussian 82(TM) system (copyright 1983,
 Carnegie Mellon University). Gaussian is a federally registered
 trademark of Gaussian, Inc.
  
 This software contains proprietary and confidential information,
 including trade secrets, belonging to Gaussian, Inc.
  
 This software is provided under written license and may be
 used, copied, transmitted, or stored only in accord with that
 written license.
  
 The following legend is applicable only to US Government
 contracts under FAR:
  
                    RESTRICTED RIGHTS LEGEND
  
 Use, reproduction and disclosure by the US Government is
 subject to restrictions as set forth in subparagraphs (a)
 and (c) of the Commercial Computer Software - Restricted
 Rights clause in FAR 52.227-19.
  
 Gaussian, Inc.
 340 Quinnipiac St., Bldg. 40, Wallingford CT 06492
  
  
 ---------------------------------------------------------------
 Warning -- This program may not be used in any manner that
 competes with the business of Gaussian, Inc. or will provide
 assistance to any competitor of Gaussian, Inc.  The licensee
 of this program is prohibited from giving any competitor of
 Gaussian, Inc. access to this program.  By using this program,
 the user acknowledges that Gaussian, Inc. is engaged in the
 business of creating and licensing software in the field of
 computational chemistry and represents and warrants to the
 licensee that it is not a competitor of Gaussian, Inc. and that
 it will not use this program in any manner prohibited above.
 ---------------------------------------------------------------
  

 Cite this work as:
 Gaussian 16, Revision A.03,
 M. J. Frisch, G. W. Trucks, H. B. Schlegel, G. E. Scuseria, 
 M. A. Robb, J. R. Cheeseman, G. Scalmani, V. Barone, 
 G. A. Petersson, H. Nakatsuji, X. Li, M. Caricato, A. V. Marenich, 
 J. Bloino, B. G. Janesko, R. Gomperts, B. Mennucci, H. P. Hratchian, 
 J. V. Ortiz, A. F. Izmaylov, J. L. Sonnenberg, D. Williams-Young, 
 F. Ding, F. Lipparini, F. Egidi, J. Goings, B. Peng, A. Petrone, 
 T. Henderson, D. Ranasinghe, V. G. Zakrzewski, J. Gao, N. Rega, 
 G. Zheng, W. Liang, M. Hada, M. Ehara, K. Toyota, R. Fukuda, 
 J. Hasegawa, M. Ishida, T. Nakajima, Y. Honda, O. Kitao, H. Nakai, 
 T. Vreven, K. Throssell, J. A. Montgomery, Jr., J. E. Peralta, 
 F. Ogliaro, M. J. Bearpark, J. J. Heyd, E. N. Brothers, K. N. Kudin, 
 V. N. Staroverov, T. A. Keith, R. Kobayashi, J. Normand, 
 K. Raghavachari, A. P. Rendell, J. C. Burant, S. S. Iyengar, 
 J. Tomasi, M. Cossi, J. M. Millam, M. Klene, C. Adamo, R. Cammi, 
 J. W. Ochterski, R. L. Martin, K. Morokuma, O. Farkas, 
 J. B. Foresman, and D. J. Fox, Gaussian, Inc., Wallingford CT, 2016.
 
 ******************************************
 Gaussian 16:  ES64L-G16RevA.03 25-Dec-2016
                22-Dec-2025 
 ******************************************
 %nprocshared=64
 Will use up to   64 processors via shared memory.
 %mem=128GB
 %oldchk=01C_Si_1_C_C2_CC_N__CC_C2C_C3_C__m062x_def2SVP_ethanol.chk
 %chk=04C_Si_1_C_C2_CC_N__CC_C2C_C3_C__m062x_def2SVP_ethanol.chk
 Copying data from "01C_Si_1_C_C2_CC_N__CC_C2C_C3_C__m062x_def2SVP_ethanol.chk" to current chk file "04C_Si_1_C_C2_CC_N__CC_C2C_C3_C__m062x_def2SVP_ethanol.chk"
 IOpt=  2 FromEx=T IUOpen= 4 IOptOp= 5 NList=   0 IFRang= 0 IUIn= 4 IUOut= 2.
 ----------------------------------------------------------------------
 # m062x/def2SVP TD=(NStates=5, Root=1) SCRF=(SMD, solvent=Ethanol) Opt
 =CalcFC Freq geom=check guess=read
 ----------------------------------------------------------------------
 1/10=4,18=20,19=15,26=3,29=2,38=1/1,3;
 2/9=110,12=2,40=1/2;
 3/5=43,7=101,11=9,14=-4,25=1,30=1,70=32201,71=2,72=4,74=-55,116=-2,140=1/1,2,3,8;
 4/5=1/1;
 5/5=2,38=6,53=4/2;
 8/6=1,10=1,107=1,108=5/1;
 9/8=1,15=3,41=5,42=1,70=2/14;
 10/5=2004,20=4,28=1/2;
 11/6=1,8=1,12=-1,16=1,42=3/1,2,10;
 10/6=3,21=1,28=1/2,14;
 6/7=2,8=2,9=2,10=2/1;
 7/10=1,12=6,13=8,14=1,18=20,25=1,44=2/1,2,3,16;
 1/10=4,18=20,19=15,26=3/3(2);
 2/9=110/2;
 99//99;
 2/9=110/2;
 3/5=43,7=101,11=9,14=-2,25=1,30=1,70=32205,71=1,72=4,74=-55/1,2,3,8;
 4/5=5,16=3,69=1/1;
 5/5=2,38=5,53=4/2;
 8/6=1,10=1,107=1,108=5/1;
 9/8=1,15=2,41=5,42=1,49=4,70=2/14;
 10/5=4,28=1/2;
 7/12=6,13=5,14=1/1,2,3,16;
 1/18=20,19=15,26=3/3(-8);
 2/9=110/2;
 6/7=2,8=2,9=2,10=2/1;
 99//99;
 --------------------------
 Step4 ES Opt m062x/def2SVP
 --------------------------
 Structure from the checkpoint file:  "04C_Si_1_C_C2_CC_N__CC_C2C_C3_C__m062x_def2SVP_ethanol.chk"
 Charge =  1 Multiplicity = 1
 Redundant internal coordinates found in file.  (old form).
 C,0,-3.7760750013,1.0681430273,1.1267267248
 Si,0,-2.5515016196,0.9261958807,-0.2812496947
 C,0,-3.2898283497,1.5047676296,-1.900194681
 C,0,-0.9838077445,1.8885938084,0.1115174083
 C,0,-1.0693025769,3.2528922183,0.2691473894
 C,0,0.0745403292,4.0507429636,0.5700236239
 N,0,-0.0344242955,5.3700649469,0.720737469
 C,0,1.3300861965,3.3952292734,0.7029475145
 C,0,1.4190704839,2.0368467922,0.5509456513
 C,0,0.2816634674,1.2205620458,0.2522335015
 C,0,0.4577988078,-0.188620986,0.1015198404
 C,0,1.8484725161,-0.7105203168,0.3096021414
 C,0,2.7358476298,-0.8041534651,-0.7765210307
 C,0,2.3246184327,-0.3905157228,-2.1645460913
 C,0,4.017495565,-1.297750816,-0.5054846306
 C,0,4.4097013415,-1.6836229932,0.7719209401
 C,0,3.5160534832,-1.5902095148,1.8535249676
 N,0,3.8722963709,-2.0194404966,3.1152324582
 C,0,2.2262167283,-1.0927542061,1.5964967816
 C,0,-0.5396347132,-1.1583544329,-0.2207306446
 C,0,-1.9260644307,-0.8411817387,-0.4328105802
 C,0,-2.8252247385,-1.8349170746,-0.7448374963
 C,0,-2.4276441453,-3.1992561418,-0.8722963662
 C,0,-1.0558174951,-3.5170189486,-0.6698271111
 C,0,-0.1580866672,-2.5316040378,-0.3553713119
 N,0,-3.3176825376,-4.1442438285,-1.1720084567
 H,0,-4.0970581201,2.1140252987,1.2518190297
 H,0,-4.6700616465,0.4592434867,0.9203796181
 H,0,-3.3311157035,0.7246275806,2.0725690897
 H,0,-4.1762093625,0.9032072067,-2.1551871578
 H,0,-2.5607321896,1.4160423932,-2.7194266638
 H,0,-3.6033925497,2.5576532239,-1.8246818008
 H,0,-2.0283622862,3.7704601679,0.1664250268
 H,0,-0.9327815475,5.83164051,0.6268638925
 H,0,0.7785077815,5.9385812347,0.9323301628
 H,0,2.2173374109,3.9887168005,0.9297200738
 H,0,2.3987000925,1.5718117857,0.6625307521
 H,0,3.1519052825,-0.5313507498,-2.8728435162
 H,0,2.0247242309,0.6691175358,-2.1975934105
 H,0,1.465695865,-0.9801583437,-2.5230100722
 H,0,4.733929512,-1.3800922259,-1.3267882168
 H,0,5.4190614625,-2.0636946863,0.9445008779
 H,0,3.333278826,-1.6360219024,3.8847103206
 H,0,4.8681729934,-2.0565770977,3.3062688257
 H,0,1.5112041666,-1.0063120429,2.4188421539
 H,0,-3.8829222559,-1.6036826106,-0.9058472572
 H,0,-0.731512539,-4.5545731707,-0.7653655725
 H,0,0.8834753181,-2.8163351472,-0.2056208737
 H,0,-4.294989284,-3.9120003785,-1.3128849425
 H,0,-3.0356224944,-5.1142027344,-1.2644086561
 Recover connectivity data from disk.

 GradGradGradGradGradGradGradGradGradGradGradGradGradGradGradGradGradGrad
 Berny optimization.
 Initialization pass.
                           ----------------------------
                           !    Initial Parameters    !
                           ! (Angstroms and Degrees)  !
 --------------------------                            --------------------------
 ! Name  Definition              Value          Derivative Info.                !
 --------------------------------------------------------------------------------
 ! R1    R(1,2)                  1.8714         calculate D2E/DX2 analytically  !
 ! R2    R(1,27)                 1.1012         calculate D2E/DX2 analytically  !
 ! R3    R(1,28)                 1.1012         calculate D2E/DX2 analytically  !
 ! R4    R(1,29)                 1.1003         calculate D2E/DX2 analytically  !
 ! R5    R(2,3)                  1.8711         calculate D2E/DX2 analytically  !
 ! R6    R(2,4)                  1.881          calculate D2E/DX2 analytically  !
 ! R7    R(2,21)                 1.8809         calculate D2E/DX2 analytically  !
 ! R8    R(3,30)                 1.1012         calculate D2E/DX2 analytically  !
 ! R9    R(3,31)                 1.1003         calculate D2E/DX2 analytically  !
 ! R10   R(3,32)                 1.1012         calculate D2E/DX2 analytically  !
 ! R11   R(4,5)                  1.376          calculate D2E/DX2 analytically  !
 ! R12   R(4,10)                 1.4379         calculate D2E/DX2 analytically  !
 ! R13   R(5,6)                  1.4267         calculate D2E/DX2 analytically  !
 ! R14   R(5,33)                 1.0946         calculate D2E/DX2 analytically  !
 ! R15   R(6,7)                  1.3324         calculate D2E/DX2 analytically  !
 ! R16   R(6,8)                  1.4226         calculate D2E/DX2 analytically  !
 ! R17   R(7,34)                 1.0144         calculate D2E/DX2 analytically  !
 ! R18   R(7,35)                 1.0143         calculate D2E/DX2 analytically  !
 ! R19   R(8,9)                  1.3698         calculate D2E/DX2 analytically  !
 ! R20   R(8,36)                 1.0913         calculate D2E/DX2 analytically  !
 ! R21   R(9,10)                 1.4315         calculate D2E/DX2 analytically  !
 ! R22   R(9,37)                 1.0901         calculate D2E/DX2 analytically  !
 ! R23   R(10,11)                1.4281         calculate D2E/DX2 analytically  !
 ! R24   R(11,12)                1.4999         calculate D2E/DX2 analytically  !
 ! R25   R(11,20)                1.428          calculate D2E/DX2 analytically  !
 ! R26   R(12,13)                1.4057         calculate D2E/DX2 analytically  !
 ! R27   R(12,19)                1.3946         calculate D2E/DX2 analytically  !
 ! R28   R(13,14)                1.5056         calculate D2E/DX2 analytically  !
 ! R29   R(13,15)                1.3999         calculate D2E/DX2 analytically  !
 ! R30   R(14,38)                1.0981         calculate D2E/DX2 analytically  !
 ! R31   R(14,39)                1.1017         calculate D2E/DX2 analytically  !
 ! R32   R(14,40)                1.1018         calculate D2E/DX2 analytically  !
 ! R33   R(15,16)                1.3909         calculate D2E/DX2 analytically  !
 ! R34   R(15,41)                1.093          calculate D2E/DX2 analytically  !
 ! R35   R(16,17)                1.4061         calculate D2E/DX2 analytically  !
 ! R36   R(16,42)                1.0923         calculate D2E/DX2 analytically  !
 ! R37   R(17,18)                1.3795         calculate D2E/DX2 analytically  !
 ! R38   R(17,19)                1.4061         calculate D2E/DX2 analytically  !
 ! R39   R(18,43)                1.0147         calculate D2E/DX2 analytically  !
 ! R40   R(18,44)                1.0147         calculate D2E/DX2 analytically  !
 ! R41   R(19,45)                1.0931         calculate D2E/DX2 analytically  !
 ! R42   R(20,21)                1.438          calculate D2E/DX2 analytically  !
 ! R43   R(20,25)                1.4316         calculate D2E/DX2 analytically  !
 ! R44   R(21,22)                1.376          calculate D2E/DX2 analytically  !
 ! R45   R(22,23)                1.4268         calculate D2E/DX2 analytically  !
 ! R46   R(22,46)                1.0946         calculate D2E/DX2 analytically  !
 ! R47   R(23,24)                1.4226         calculate D2E/DX2 analytically  !
 ! R48   R(23,26)                1.3323         calculate D2E/DX2 analytically  !
 ! R49   R(24,25)                1.3696         calculate D2E/DX2 analytically  !
 ! R50   R(24,47)                1.0912         calculate D2E/DX2 analytically  !
 ! R51   R(25,48)                1.0901         calculate D2E/DX2 analytically  !
 ! R52   R(26,49)                1.0144         calculate D2E/DX2 analytically  !
 ! R53   R(26,50)                1.0144         calculate D2E/DX2 analytically  !
 ! A1    A(2,1,27)             110.3807         calculate D2E/DX2 analytically  !
 ! A2    A(2,1,28)             110.3847         calculate D2E/DX2 analytically  !
 ! A3    A(2,1,29)             111.0053         calculate D2E/DX2 analytically  !
 ! A4    A(27,1,28)            108.0495         calculate D2E/DX2 analytically  !
 ! A5    A(27,1,29)            108.4673         calculate D2E/DX2 analytically  !
 ! A6    A(28,1,29)            108.4678         calculate D2E/DX2 analytically  !
 ! A7    A(1,2,3)              111.6738         calculate D2E/DX2 analytically  !
 ! A8    A(1,2,4)              110.4545         calculate D2E/DX2 analytically  !
 ! A9    A(1,2,21)             110.456          calculate D2E/DX2 analytically  !
 ! A10   A(3,2,4)              110.5693         calculate D2E/DX2 analytically  !
 ! A11   A(3,2,21)             110.6129         calculate D2E/DX2 analytically  !
 ! A12   A(4,2,21)             102.7357         calculate D2E/DX2 analytically  !
 ! A13   A(2,3,30)             110.4307         calculate D2E/DX2 analytically  !
 ! A14   A(2,3,31)             110.9668         calculate D2E/DX2 analytically  !
 ! A15   A(2,3,32)             110.4073         calculate D2E/DX2 analytically  !
 ! A16   A(30,3,31)            108.4773         calculate D2E/DX2 analytically  !
 ! A17   A(30,3,32)            107.9992         calculate D2E/DX2 analytically  !
 ! A18   A(31,3,32)            108.4728         calculate D2E/DX2 analytically  !
 ! A19   A(2,4,5)              118.6473         calculate D2E/DX2 analytically  !
 ! A20   A(2,4,10)             121.0801         calculate D2E/DX2 analytically  !
 ! A21   A(5,4,10)             120.272          calculate D2E/DX2 analytically  !
 ! A22   A(4,5,6)              121.9247         calculate D2E/DX2 analytically  !
 ! A23   A(4,5,33)             120.829          calculate D2E/DX2 analytically  !
 ! A24   A(6,5,33)             117.2463         calculate D2E/DX2 analytically  !
 ! A25   A(5,6,7)              120.7998         calculate D2E/DX2 analytically  !
 ! A26   A(5,6,8)              118.0095         calculate D2E/DX2 analytically  !
 ! A27   A(7,6,8)              121.1907         calculate D2E/DX2 analytically  !
 ! A28   A(6,7,34)             120.834          calculate D2E/DX2 analytically  !
 ! A29   A(6,7,35)             120.8676         calculate D2E/DX2 analytically  !
 ! A30   A(34,7,35)            118.2984         calculate D2E/DX2 analytically  !
 ! A31   A(6,8,9)              120.2604         calculate D2E/DX2 analytically  !
 ! A32   A(6,8,36)             119.1037         calculate D2E/DX2 analytically  !
 ! A33   A(9,8,36)             120.6357         calculate D2E/DX2 analytically  !
 ! A34   A(8,9,10)             122.4816         calculate D2E/DX2 analytically  !
 ! A35   A(8,9,37)             118.0385         calculate D2E/DX2 analytically  !
 ! A36   A(10,9,37)            119.4798         calculate D2E/DX2 analytically  !
 ! A37   A(4,10,9)             117.0505         calculate D2E/DX2 analytically  !
 ! A38   A(4,10,11)            123.8246         calculate D2E/DX2 analytically  !
 ! A39   A(9,10,11)            119.1231         calculate D2E/DX2 analytically  !
 ! A40   A(10,11,12)           116.2991         calculate D2E/DX2 analytically  !
 ! A41   A(10,11,20)           127.4277         calculate D2E/DX2 analytically  !
 ! A42   A(12,11,20)           116.2729         calculate D2E/DX2 analytically  !
 ! A43   A(11,12,13)           120.0865         calculate D2E/DX2 analytically  !
 ! A44   A(11,12,19)           118.3287         calculate D2E/DX2 analytically  !
 ! A45   A(13,12,19)           121.5848         calculate D2E/DX2 analytically  !
 ! A46   A(12,13,14)           121.4407         calculate D2E/DX2 analytically  !
 ! A47   A(12,13,15)           116.8625         calculate D2E/DX2 analytically  !
 ! A48   A(14,13,15)           121.6968         calculate D2E/DX2 analytically  !
 ! A49   A(13,14,38)           110.7094         calculate D2E/DX2 analytically  !
 ! A50   A(13,14,39)           111.4834         calculate D2E/DX2 analytically  !
 ! A51   A(13,14,40)           111.4594         calculate D2E/DX2 analytically  !
 ! A52   A(38,14,39)           108.0025         calculate D2E/DX2 analytically  !
 ! A53   A(38,14,40)           107.9875         calculate D2E/DX2 analytically  !
 ! A54   A(39,14,40)           107.023          calculate D2E/DX2 analytically  !
 ! A55   A(13,15,16)           122.2631         calculate D2E/DX2 analytically  !
 ! A56   A(13,15,41)           118.7635         calculate D2E/DX2 analytically  !
 ! A57   A(16,15,41)           118.9733         calculate D2E/DX2 analytically  !
 ! A58   A(15,16,17)           120.5851         calculate D2E/DX2 analytically  !
 ! A59   A(15,16,42)           120.148          calculate D2E/DX2 analytically  !
 ! A60   A(17,16,42)           119.2669         calculate D2E/DX2 analytically  !
 ! A61   A(16,17,18)           121.247          calculate D2E/DX2 analytically  !
 ! A62   A(16,17,19)           117.7668         calculate D2E/DX2 analytically  !
 ! A63   A(18,17,19)           120.9399         calculate D2E/DX2 analytically  !
 ! A64   A(17,18,43)           116.0284         calculate D2E/DX2 analytically  !
 ! A65   A(17,18,44)           115.9139         calculate D2E/DX2 analytically  !
 ! A66   A(43,18,44)           113.1041         calculate D2E/DX2 analytically  !
 ! A67   A(12,19,17)           120.9373         calculate D2E/DX2 analytically  !
 ! A68   A(12,19,45)           119.692          calculate D2E/DX2 analytically  !
 ! A69   A(17,19,45)           119.3706         calculate D2E/DX2 analytically  !
 ! A70   A(11,20,21)           123.8455         calculate D2E/DX2 analytically  !
 ! A71   A(11,20,25)           119.1092         calculate D2E/DX2 analytically  !
 ! A72   A(21,20,25)           117.0437         calculate D2E/DX2 analytically  !
 ! A73   A(2,21,20)            121.0627         calculate D2E/DX2 analytically  !
 ! A74   A(2,21,22)            118.6587         calculate D2E/DX2 analytically  !
 ! A75   A(20,21,22)           120.2776         calculate D2E/DX2 analytically  !
 ! A76   A(21,22,23)           121.9211         calculate D2E/DX2 analytically  !
 ! A77   A(21,22,46)           120.8125         calculate D2E/DX2 analytically  !
 ! A78   A(23,22,46)           117.2664         calculate D2E/DX2 analytically  !
 ! A79   A(22,23,24)           118.0067         calculate D2E/DX2 analytically  !
 ! A80   A(22,23,26)           120.8098         calculate D2E/DX2 analytically  !
 ! A81   A(24,23,26)           121.1835         calculate D2E/DX2 analytically  !
 ! A82   A(23,24,25)           120.2667         calculate D2E/DX2 analytically  !
 ! A83   A(23,24,47)           119.11           calculate D2E/DX2 analytically  !
 ! A84   A(25,24,47)           120.6231         calculate D2E/DX2 analytically  !
 ! A85   A(20,25,24)           122.4832         calculate D2E/DX2 analytically  !
 ! A86   A(20,25,48)           119.49           calculate D2E/DX2 analytically  !
 ! A87   A(24,25,48)           118.0268         calculate D2E/DX2 analytically  !
 ! A88   A(23,26,49)           120.8303         calculate D2E/DX2 analytically  !
 ! A89   A(23,26,50)           120.8625         calculate D2E/DX2 analytically  !
 ! A90   A(49,26,50)           118.3071         calculate D2E/DX2 analytically  !
 ! D1    D(27,1,2,3)           -59.7348         calculate D2E/DX2 analytically  !
 ! D2    D(27,1,2,4)            63.7515         calculate D2E/DX2 analytically  !
 ! D3    D(27,1,2,21)          176.7215         calculate D2E/DX2 analytically  !
 ! D4    D(28,1,2,3)            59.6495         calculate D2E/DX2 analytically  !
 ! D5    D(28,1,2,4)          -176.8642         calculate D2E/DX2 analytically  !
 ! D6    D(28,1,2,21)          -63.8942         calculate D2E/DX2 analytically  !
 ! D7    D(29,1,2,3)           179.9589         calculate D2E/DX2 analytically  !
 ! D8    D(29,1,2,4)           -56.5547         calculate D2E/DX2 analytically  !
 ! D9    D(29,1,2,21)           56.4153         calculate D2E/DX2 analytically  !
 ! D10   D(1,2,3,30)           -59.6524         calculate D2E/DX2 analytically  !
 ! D11   D(1,2,3,31)          -179.9791         calculate D2E/DX2 analytically  !
 ! D12   D(1,2,3,32)            59.7155         calculate D2E/DX2 analytically  !
 ! D13   D(4,2,3,30)           176.9262         calculate D2E/DX2 analytically  !
 ! D14   D(4,2,3,31)            56.5996         calculate D2E/DX2 analytically  !
 ! D15   D(4,2,3,32)           -63.7059         calculate D2E/DX2 analytically  !
 ! D16   D(21,2,3,30)           63.8024         calculate D2E/DX2 analytically  !
 ! D17   D(21,2,3,31)          -56.5242         calculate D2E/DX2 analytically  !
 ! D18   D(21,2,3,32)         -176.8297         calculate D2E/DX2 analytically  !
 ! D19   D(1,2,4,5)            -63.2898         calculate D2E/DX2 analytically  !
 ! D20   D(1,2,4,10)           116.4249         calculate D2E/DX2 analytically  !
 ! D21   D(3,2,4,5)             60.8338         calculate D2E/DX2 analytically  !
 ! D22   D(3,2,4,10)          -119.4515         calculate D2E/DX2 analytically  !
 ! D23   D(21,2,4,5)           178.8891         calculate D2E/DX2 analytically  !
 ! D24   D(21,2,4,10)           -1.3962         calculate D2E/DX2 analytically  !
 ! D25   D(1,2,21,20)         -116.3594         calculate D2E/DX2 analytically  !
 ! D26   D(1,2,21,22)           63.2679         calculate D2E/DX2 analytically  !
 ! D27   D(3,2,21,20)          119.4852         calculate D2E/DX2 analytically  !
 ! D28   D(3,2,21,22)          -60.8875         calculate D2E/DX2 analytically  !
 ! D29   D(4,2,21,20)            1.4607         calculate D2E/DX2 analytically  !
 ! D30   D(4,2,21,22)         -178.9121         calculate D2E/DX2 analytically  !
 ! D31   D(2,4,5,6)            179.8977         calculate D2E/DX2 analytically  !
 ! D32   D(2,4,5,33)            -0.1345         calculate D2E/DX2 analytically  !
 ! D33   D(10,4,5,6)             0.1805         calculate D2E/DX2 analytically  !
 ! D34   D(10,4,5,33)         -179.8516         calculate D2E/DX2 analytically  !
 ! D35   D(2,4,10,9)           179.9711         calculate D2E/DX2 analytically  !
 ! D36   D(2,4,10,11)            0.4568         calculate D2E/DX2 analytically  !
 ! D37   D(5,4,10,9)            -0.3187         calculate D2E/DX2 analytically  !
 ! D38   D(5,4,10,11)         -179.8331         calculate D2E/DX2 analytically  !
 ! D39   D(4,5,6,7)           -179.8593         calculate D2E/DX2 analytically  !
 ! D40   D(4,5,6,8)              0.1622         calculate D2E/DX2 analytically  !
 ! D41   D(33,5,6,7)             0.1718         calculate D2E/DX2 analytically  !
 ! D42   D(33,5,6,8)          -179.8067         calculate D2E/DX2 analytically  !
 ! D43   D(5,6,7,34)             0.1632         calculate D2E/DX2 analytically  !
 ! D44   D(5,6,7,35)          -179.8436         calculate D2E/DX2 analytically  !
 ! D45   D(8,6,7,34)          -179.859          calculate D2E/DX2 analytically  !
 ! D46   D(8,6,7,35)             0.1342         calculate D2E/DX2 analytically  !
 ! D47   D(5,6,8,9)             -0.3619         calculate D2E/DX2 analytically  !
 ! D48   D(5,6,8,36)           179.8039         calculate D2E/DX2 analytically  !
 ! D49   D(7,6,8,9)            179.6597         calculate D2E/DX2 analytically  !
 ! D50   D(7,6,8,36)            -0.1745         calculate D2E/DX2 analytically  !
 ! D51   D(6,8,9,10)             0.2225         calculate D2E/DX2 analytically  !
 ! D52   D(6,8,9,37)          -179.8741         calculate D2E/DX2 analytically  !
 ! D53   D(36,8,9,10)         -179.9459         calculate D2E/DX2 analytically  !
 ! D54   D(36,8,9,37)           -0.0424         calculate D2E/DX2 analytically  !
 ! D55   D(8,9,10,4)             0.1194         calculate D2E/DX2 analytically  !
 ! D56   D(8,9,10,11)          179.6576         calculate D2E/DX2 analytically  !
 ! D57   D(37,9,10,4)         -179.7827         calculate D2E/DX2 analytically  !
 ! D58   D(37,9,10,11)          -0.2445         calculate D2E/DX2 analytically  !
 ! D59   D(4,10,11,12)        -178.9189         calculate D2E/DX2 analytically  !
 ! D60   D(4,10,11,20)           0.8753         calculate D2E/DX2 analytically  !
 ! D61   D(9,10,11,12)           1.5763         calculate D2E/DX2 analytically  !
 ! D62   D(9,10,11,20)        -178.6296         calculate D2E/DX2 analytically  !
 ! D63   D(10,11,12,13)        -90.2233         calculate D2E/DX2 analytically  !
 ! D64   D(10,11,12,19)         89.7261         calculate D2E/DX2 analytically  !
 ! D65   D(20,11,12,13)         89.959          calculate D2E/DX2 analytically  !
 ! D66   D(20,11,12,19)        -90.0916         calculate D2E/DX2 analytically  !
 ! D67   D(10,11,20,21)         -0.7988         calculate D2E/DX2 analytically  !
 ! D68   D(10,11,20,25)        178.7168         calculate D2E/DX2 analytically  !
 ! D69   D(12,11,20,21)        178.9954         calculate D2E/DX2 analytically  !
 ! D70   D(12,11,20,25)         -1.489          calculate D2E/DX2 analytically  !
 ! D71   D(11,12,13,14)         -0.05           calculate D2E/DX2 analytically  !
 ! D72   D(11,12,13,15)        179.8741         calculate D2E/DX2 analytically  !
 ! D73   D(19,12,13,14)       -179.9977         calculate D2E/DX2 analytically  !
 ! D74   D(19,12,13,15)         -0.0736         calculate D2E/DX2 analytically  !
 ! D75   D(11,12,19,17)        179.961          calculate D2E/DX2 analytically  !
 ! D76   D(11,12,19,45)          0.0144         calculate D2E/DX2 analytically  !
 ! D77   D(13,12,19,17)         -0.0904         calculate D2E/DX2 analytically  !
 ! D78   D(13,12,19,45)        179.963          calculate D2E/DX2 analytically  !
 ! D79   D(12,13,14,38)        179.6877         calculate D2E/DX2 analytically  !
 ! D80   D(12,13,14,39)         59.4313         calculate D2E/DX2 analytically  !
 ! D81   D(12,13,14,40)        -60.0908         calculate D2E/DX2 analytically  !
 ! D82   D(15,13,14,38)         -0.2327         calculate D2E/DX2 analytically  !
 ! D83   D(15,13,14,39)       -120.4891         calculate D2E/DX2 analytically  !
 ! D84   D(15,13,14,40)        119.9887         calculate D2E/DX2 analytically  !
 ! D85   D(12,13,15,16)          0.0976         calculate D2E/DX2 analytically  !
 ! D86   D(12,13,15,41)       -179.7729         calculate D2E/DX2 analytically  !
 ! D87   D(14,13,15,16)       -179.9785         calculate D2E/DX2 analytically  !
 ! D88   D(14,13,15,41)          0.151          calculate D2E/DX2 analytically  !
 ! D89   D(13,15,16,17)          0.0425         calculate D2E/DX2 analytically  !
 ! D90   D(13,15,16,42)       -179.9648         calculate D2E/DX2 analytically  !
 ! D91   D(41,15,16,17)        179.9128         calculate D2E/DX2 analytically  !
 ! D92   D(41,15,16,42)         -0.0945         calculate D2E/DX2 analytically  !
 ! D93   D(15,16,17,18)        177.3436         calculate D2E/DX2 analytically  !
 ! D94   D(15,16,17,19)         -0.2035         calculate D2E/DX2 analytically  !
 ! D95   D(42,16,17,18)         -2.6492         calculate D2E/DX2 analytically  !
 ! D96   D(42,16,17,19)        179.8037         calculate D2E/DX2 analytically  !
 ! D97   D(16,17,18,43)        159.246          calculate D2E/DX2 analytically  !
 ! D98   D(16,17,18,44)         22.961          calculate D2E/DX2 analytically  !
 ! D99   D(19,17,18,43)        -23.2845         calculate D2E/DX2 analytically  !
 ! D100  D(19,17,18,44)       -159.5695         calculate D2E/DX2 analytically  !
 ! D101  D(16,17,19,12)          0.2272         calculate D2E/DX2 analytically  !
 ! D102  D(16,17,19,45)       -179.826          calculate D2E/DX2 analytically  !
 ! D103  D(18,17,19,12)       -177.3278         calculate D2E/DX2 analytically  !
 ! D104  D(18,17,19,45)          2.6189         calculate D2E/DX2 analytically  !
 ! D105  D(11,20,21,2)          -0.5945         calculate D2E/DX2 analytically  !
 ! D106  D(11,20,21,22)        179.7843         calculate D2E/DX2 analytically  !
 ! D107  D(25,20,21,2)         179.8808         calculate D2E/DX2 analytically  !
 ! D108  D(25,20,21,22)          0.2595         calculate D2E/DX2 analytically  !
 ! D109  D(11,20,25,24)       -179.6249         calculate D2E/DX2 analytically  !
 ! D110  D(11,20,25,48)          0.2989         calculate D2E/DX2 analytically  !
 ! D111  D(21,20,25,24)         -0.0767         calculate D2E/DX2 analytically  !
 ! D112  D(21,20,25,48)        179.8471         calculate D2E/DX2 analytically  !
 ! D113  D(2,21,22,23)        -179.77           calculate D2E/DX2 analytically  !
 ! D114  D(2,21,22,46)           0.2306         calculate D2E/DX2 analytically  !
 ! D115  D(20,21,22,23)         -0.1397         calculate D2E/DX2 analytically  !
 ! D116  D(20,21,22,46)        179.8608         calculate D2E/DX2 analytically  !
 ! D117  D(21,22,23,24)         -0.1651         calculate D2E/DX2 analytically  !
 ! D118  D(21,22,23,26)        179.8314         calculate D2E/DX2 analytically  !
 ! D119  D(46,22,23,24)        179.8343         calculate D2E/DX2 analytically  !
 ! D120  D(46,22,23,26)         -0.1692         calculate D2E/DX2 analytically  !
 ! D121  D(22,23,24,25)          0.3473         calculate D2E/DX2 analytically  !
 ! D122  D(22,23,24,47)       -179.8483         calculate D2E/DX2 analytically  !
 ! D123  D(26,23,24,25)       -179.6493         calculate D2E/DX2 analytically  !
 ! D124  D(26,23,24,47)          0.1552         calculate D2E/DX2 analytically  !
 ! D125  D(22,23,26,49)         -0.1571         calculate D2E/DX2 analytically  !
 ! D126  D(22,23,26,50)        179.8925         calculate D2E/DX2 analytically  !
 ! D127  D(24,23,26,49)        179.8394         calculate D2E/DX2 analytically  !
 ! D128  D(24,23,26,50)         -0.111          calculate D2E/DX2 analytically  !
 ! D129  D(23,24,25,20)         -0.2288         calculate D2E/DX2 analytically  !
 ! D130  D(23,24,25,48)        179.8463         calculate D2E/DX2 analytically  !
 ! D131  D(47,24,25,20)        179.9697         calculate D2E/DX2 analytically  !
 ! D132  D(47,24,25,48)          0.0449         calculate D2E/DX2 analytically  !
 --------------------------------------------------------------------------------
 Trust Radius=3.00D-01 FncErr=1.00D-07 GrdErr=1.00D-06 EigMax=2.50D+02 EigMin=1.00D-04
 Number of steps in this run=    285 maximum allowed number of steps=    300.
 GradGradGradGradGradGradGradGradGradGradGradGradGradGradGradGradGradGrad

                          Input orientation:                          
 ---------------------------------------------------------------------
 Center     Atomic      Atomic             Coordinates (Angstroms)
 Number     Number       Type             X           Y           Z
 ---------------------------------------------------------------------
      1          6           0       -3.776075    1.068143    1.126727
      2         14           0       -2.551502    0.926196   -0.281250
      3          6           0       -3.289828    1.504768   -1.900195
      4          6           0       -0.983808    1.888594    0.111517
      5          6           0       -1.069303    3.252892    0.269147
      6          6           0        0.074540    4.050743    0.570024
      7          7           0       -0.034424    5.370065    0.720737
      8          6           0        1.330086    3.395229    0.702948
      9          6           0        1.419070    2.036847    0.550946
     10          6           0        0.281663    1.220562    0.252234
     11          6           0        0.457799   -0.188621    0.101520
     12          6           0        1.848473   -0.710520    0.309602
     13          6           0        2.735848   -0.804153   -0.776521
     14          6           0        2.324618   -0.390516   -2.164546
     15          6           0        4.017496   -1.297751   -0.505485
     16          6           0        4.409701   -1.683623    0.771921
     17          6           0        3.516053   -1.590210    1.853525
     18          7           0        3.872296   -2.019440    3.115232
     19          6           0        2.226217   -1.092754    1.596497
     20          6           0       -0.539635   -1.158354   -0.220731
     21          6           0       -1.926064   -0.841182   -0.432811
     22          6           0       -2.825225   -1.834917   -0.744837
     23          6           0       -2.427644   -3.199256   -0.872296
     24          6           0       -1.055817   -3.517019   -0.669827
     25          6           0       -0.158087   -2.531604   -0.355371
     26          7           0       -3.317683   -4.144244   -1.172008
     27          1           0       -4.097058    2.114025    1.251819
     28          1           0       -4.670062    0.459243    0.920380
     29          1           0       -3.331116    0.724628    2.072569
     30          1           0       -4.176209    0.903207   -2.155187
     31          1           0       -2.560732    1.416042   -2.719427
     32          1           0       -3.603393    2.557653   -1.824682
     33          1           0       -2.028362    3.770460    0.166425
     34          1           0       -0.932782    5.831641    0.626864
     35          1           0        0.778508    5.938581    0.932330
     36          1           0        2.217337    3.988717    0.929720
     37          1           0        2.398700    1.571812    0.662531
     38          1           0        3.151905   -0.531351   -2.872844
     39          1           0        2.024724    0.669118   -2.197593
     40          1           0        1.465696   -0.980158   -2.523010
     41          1           0        4.733930   -1.380092   -1.326788
     42          1           0        5.419061   -2.063695    0.944501
     43          1           0        3.333279   -1.636022    3.884710
     44          1           0        4.868173   -2.056577    3.306269
     45          1           0        1.511204   -1.006312    2.418842
     46          1           0       -3.882922   -1.603683   -0.905847
     47          1           0       -0.731513   -4.554573   -0.765366
     48          1           0        0.883475   -2.816335   -0.205621
     49          1           0       -4.294989   -3.912000   -1.312885
     50          1           0       -3.035622   -5.114203   -1.264409
 ---------------------------------------------------------------------
                    Distance matrix (angstroms):
                    1          2          3          4          5
     1  C    0.000000
     2  Si   1.871397   0.000000
     3  C    3.096664   1.871057   0.000000
     4  C    3.082296   1.880994   3.084159   0.000000
     5  C    3.582623   2.813071   3.562684   1.376033   0.000000
     6  C    4.902352   4.169359   4.889064   2.450555   1.426699
     7  N    5.715882   5.204578   5.692755   3.659661   2.399443
     8  C    5.627415   4.704412   5.629725   2.823800   2.442439
     9  C    5.315962   4.206131   5.335253   2.447223   2.783914
    10  C    4.153699   2.897944   4.179626   1.437875   2.440443
    11  C    4.533894   3.231906   4.573744   2.528468   3.768839
    12  C    5.955407   4.731566   6.016048   3.849213   4.921756
    13  C    7.037967   5.585290   6.550002   4.677108   5.659701
    14  C    7.083687   5.390462   5.931610   4.617412   5.542200
    15  C    8.306703   6.938872   7.949611   5.962090   6.869055
    16  C    8.643208   7.508573   8.751502   6.502831   7.391985
    17  C    7.795525   6.906865   8.365962   5.948564   6.855026
    18  N    8.484392   7.840794   9.427120   6.919305   7.766408
    19  C    6.396692   5.516220   7.028565   4.625782   5.613105
    20  C    4.153008   2.897692   4.180476   3.097026   4.469857
    21  C    3.082242   1.880895   3.084890   2.938676   4.241253
    22  C    3.582545   2.813109   3.564295   4.241308   5.476973
    23  C    4.901536   4.169416   4.891603   5.379477   6.691652
    24  C    5.625933   4.704277   5.632313   5.462265   6.834731
    25  C    5.314568   4.205985   5.337282   4.520835   5.889035
    26  N    5.715180   5.204790   5.695820   6.594660   7.864462
    27  H    1.101158   2.479916   3.310288   3.323166   3.380823
    28  H    1.101158   2.479971   3.309653   4.035563   4.603699
    29  H    1.100277   2.487748   4.048849   3.272674   3.841907
    30  H    3.310328   2.480291   1.101166   4.037371   4.588168
    31  H    4.048579   2.486914   1.100270   3.274789   3.811818
    32  H    3.310479   2.479982   1.101178   3.325467   3.359924
    33  H    3.358452   2.926419   3.315958   2.153028   1.094634
    34  H    5.570017   5.244837   5.537465   3.976909   2.607018
    35  H    6.671071   6.138872   6.650809   4.492426   3.326731
    36  H    6.670049   5.795456   6.671379   3.915010   3.432171
    37  H    6.212649   5.080555   6.239504   3.441704   3.873993
    38  H    8.157932   6.431924   6.825522   5.645057   6.481605
    39  H    6.697731   4.967928   5.388063   3.983765   4.725855
    40  H    6.707628   4.979714   5.401645   4.601146   5.669310
    41  H    9.188785   7.712952   8.545870   6.741332   7.595331
    42  H    9.715562   8.600685   9.832140   7.570415   8.415525
    43  H    8.090852   7.651851   9.337839   6.730315   7.507097
    44  H    9.446550   8.764633  10.312295   7.747031   8.524564
    45  H    5.824796   5.246967   6.928890   4.464226   5.424115
    46  H    3.358783   2.926275   3.317070   4.651440   5.734404
    47  H    6.668157   5.795305   6.674461   6.507456   7.882946
    48  H    6.210936   5.080485   6.241792   5.071852   6.393299
    49  H    5.569812   5.245204   5.540456   6.829329   8.015208
    50  H    6.669872   6.139006   6.654293   7.425785   8.730778
                    6          7          8          9         10
     6  C    0.000000
     7  N    1.332366   0.000000
     8  C    1.422590   2.400454   0.000000
     9  C    2.421550   3.640305   1.369754   0.000000
    10  C    2.855489   4.187813   2.455913   1.431518   0.000000
    11  C    4.282358   5.614686   3.737189   2.465509   1.428123
    12  C    5.087660   6.378703   4.156997   2.791175   2.487421
    13  C    5.697873   6.930885   4.669026   3.401081   3.343775
    14  C    5.680273   6.861066   4.852162   3.753132   3.551065
    15  C    6.731270   7.898192   5.541348   4.357453   4.568641
    16  C    7.191477   8.337109   5.939994   4.778556   5.073959
    17  C    6.731399   7.895221   5.563891   4.387435   4.574478
    18  N    7.599221   8.694876   6.449853   5.389559   5.620233
    19  C    5.669120   6.902571   4.662990   3.396920   3.307531
    20  C    5.304451   6.615275   5.008409   3.826398   2.560756
    21  C    5.379500   6.594586   5.462567   4.521145   3.097440
    22  C    6.691673   7.864365   6.834992   5.889283   4.470219
    23  C    7.804082   9.038723   7.751720   6.651286   5.304687
    24  C    7.751513   9.053020   7.440176   6.201676   5.008365
    25  C    6.651148   7.975567   6.201778   4.917273   3.826397
    26  N    9.038786  10.241306   9.053224   7.975668   6.615504
    27  H    4.649511   5.233434   5.603270   5.561012   4.579372
    28  H    5.960945   6.756120   6.683492   6.301019   5.054266
    29  H    4.991911   5.854546   5.543896   5.157667   4.075751
    30  H    5.950011   6.736330   6.685686   6.317868   5.076319
    31  H    4.970593   5.818183   5.546917   5.188407   4.116818
    32  H    4.635852   5.208297   5.606216   5.580321   4.603808
    33  H    2.159548   2.615681   3.421671   3.877894   3.441738
    34  H    2.046833   1.014352   3.326027   4.465135   4.783019
    35  H    2.047137   1.014318   2.612565   3.972318   4.792608
    36  H    2.173662   2.649949   1.091269   2.142544   3.445069
    37  H    3.399320   4.511121   2.113864   1.090130   2.184849
    38  H    6.505313   7.608760   5.614565   4.617433   4.590598
    39  H    4.785218   5.903868   4.040711   3.129212   3.056796
    40  H    6.067301   7.286810   5.437758   4.307400   3.734579
    41  H    7.402822   8.514351   6.205616   5.117582   5.392530
    42  H    8.129606   9.222329   6.824802   5.741886   6.136647
    43  H    7.344782   8.392699   6.280914   5.316780   5.537808
    44  H    8.231969   9.266900   7.001252   6.020318   6.411150
    45  H    5.572786   6.777220   4.727649   3.571882   3.341397
    46  H    7.057778   8.129568   7.399513   6.594454   5.163457
    47  H    8.745539  10.059467   8.342991   7.057230   5.950985
    48  H    6.957928   8.289622   6.293528   4.940914   4.107109
    49  H    9.275959  10.413682   9.439315   8.456543   7.052556
    50  H    9.850608  11.084578   9.764238   8.618429   7.309845
                   11         12         13         14         15
    11  C    0.000000
    12  C    1.499884   0.000000
    13  C    2.517805   1.405655   0.000000
    14  C    2.942929   2.539789   1.505596   0.000000
    15  C    3.777574   2.390370   1.399900   2.537990   0.000000
    16  C    4.278084   2.778590   2.443957   3.826557   1.390859
    17  C    3.793006   2.436879   2.853725   4.359321   2.429383
    18  N    4.908478   3.698743   4.232515   5.738010   3.694795
    19  C    2.485903   1.394594   2.444223   3.827305   2.769301
    20  C    1.427971   2.486939   3.341129   3.545693   4.568145
    21  C    2.528665   3.849075   4.674712   4.611975   5.961513
    22  C    3.768933   4.921337   5.655882   5.533783   6.867944
    23  C    4.282292   5.086832   5.692744   5.669474   6.729792
    24  C    3.736876   4.155793   4.663448   4.841132   5.539916
    25  C    2.465286   2.790128   3.396514   3.744489   4.356652
    26  N    5.614542   6.377679   6.925160   6.849173   7.896304
    27  H    5.231834   6.649448   7.701852   7.692997   8.976320
    28  H    5.233088   6.650766   7.702151   7.691840   8.977403
    29  H    4.367486   5.656486   6.874775   7.154301   8.046022
    30  H    5.268667   6.706422   7.252057   6.628316   8.643063
    31  H    4.432179   5.756594   6.062830   5.238148   7.452469
    32  H    5.267404   6.705144   7.251645   6.629368   8.641895
    33  H    4.675418   5.927017   6.671876   6.457212   7.917741
    34  H    6.201068   7.115890   7.711167   7.557635   8.753038
    35  H    6.191584   6.763369   7.226052   7.213776   8.057472
    36  H    4.607824   4.754307   5.113875   5.363177   5.766032
    37  H    2.679730   2.374100   2.798169   3.442177   3.495590
    38  H    4.027718   3.443690   2.154552   1.098145   2.634578
    39  H    2.911510   2.867141   2.166950   1.101749   3.271535
    40  H    2.920710   2.871048   2.166677   1.101782   3.268479
    41  H    4.663149   3.384075   2.151007   2.736034   1.092976
    42  H    5.370349   3.870825   3.427535   4.694814   2.157201
    43  H    4.967483   3.980277   4.772421   6.257970   4.456051
    44  H    5.762905   4.462115   4.773316   6.259013   3.978559
    45  H    2.673624   2.156417   3.427968   4.695561   3.862398
    46  H    4.675366   5.926546   6.668140   6.449004   7.916469
    47  H    4.607330   4.752749   5.107676   5.351357   5.764331
    48  H    2.679630   2.373000   2.793937   3.434950   3.495440
    49  H    6.201056   7.115059   7.705781   7.546217   8.751206
    50  H    6.191212   6.761976   7.219725   7.201087   8.055293
                   16         17         18         19         20
    16  C    0.000000
    17  C    1.406129   0.000000
    18  N    2.427486   1.379512   0.000000
    19  C    2.407625   1.406131   2.423816   0.000000
    20  C    5.075154   4.575767   5.597790   3.310068   0.000000
    21  C    6.504077   5.950212   6.899122   4.628479   1.437972
    22  C    7.393754   6.857345   7.732463   5.616913   2.440563
    23  C    7.193739   6.733994   7.548616   5.673686   2.855591
    24  C    5.942380   5.566139   6.391848   4.667444   2.455897
    25  C    4.780643   4.389163   5.343350   3.400732   1.431615
    26  N    8.339423   7.897904   8.636609   6.907317   4.187841
    27  H    9.328311   8.487807   9.168885   7.098313   5.052933
    28  H    9.330381   8.490200   9.161503   7.101020   4.580304
    29  H    8.210457   7.231195   7.778573   5.866299   4.073967
    30  H    9.432789   9.025398  10.054732   7.684403   4.606173
    31  H    8.389540   8.177821   9.339681   6.916367   4.117746
    32  H    9.430824   9.023330  10.061733   7.682075   5.076218
    33  H    8.459451   7.894532   8.777026   6.617961   5.163275
    34  H    9.221841   8.739605   9.535210   7.672464   7.052164
    35  H    8.444483   8.063836   8.812871   7.209484   7.309825
    36  H    6.083321   5.802111   6.604037   5.125038   5.951199
    37  H    3.828048   3.558838   4.591767   2.828773   4.107039
    38  H    4.024188   4.857195   6.212119   4.598595   4.588497
    39  H    4.476776   4.872390   6.234419   4.188068   3.718007
    40  H    4.474215   4.871364   6.217846   4.190633   3.058365
    41  H    2.145189   3.412003   4.569762   3.862225   5.392867
    42  H    1.092267   2.161470   2.665805   3.400306   6.138686
    43  H    3.293996   2.039907   1.014715   2.599355   5.664121
    44  H    2.602347   2.038674   1.014714   3.291232   6.518505
    45  H    3.401821   2.163317   2.661981   1.093146   3.346102
    46  H    8.461023   7.896782   8.745590   6.621507   3.441696
    47  H    6.085859   5.804124   6.533069   5.129400   3.444960
    48  H    3.830521   3.560047   4.538299   2.832192   2.185033
    49  H    9.224084   8.742383   9.481274   7.677160   4.783101
    50  H    8.446796   8.066257   8.745179   7.214138   4.792489
                   21         22         23         24         25
    21  C    0.000000
    22  C    1.375994   0.000000
    23  C    2.450560   1.426793   0.000000
    24  C    2.823758   2.442518   1.422630   0.000000
    25  C    2.447298   2.784005   2.421541   1.369615   0.000000
    26  N    3.659677   2.399579   1.332290   2.400340   3.640130
    27  H    4.035398   4.604166   5.960685   6.682105   6.299240
    28  H    3.324417   3.382239   4.650456   5.603765   5.561531
    29  H    3.271522   3.839919   4.988523   5.539791   5.154227
    30  H    3.327556   3.363268   4.640420   5.610841   5.584136
    31  H    3.275130   3.812833   4.972985   5.549840   5.190894
    32  H    4.037674   4.589802   5.952430   6.687710   6.318983
    33  H    4.651536   5.734601   7.057996   7.399494   6.594408
    34  H    6.829061   8.014924   9.275731   9.438961   8.456287
    35  H    7.425867   8.730811   9.850693   9.764222   8.618551
    36  H    6.507856   7.883292   8.745860   8.343151   7.057527
    37  H    5.072070   6.393425   6.957901   6.293256   4.940780
    38  H    5.642299   6.477174   6.500098   5.610029   4.614621
    39  H    4.583033   5.648247   6.045189   5.417338   4.289879
    40  H    3.986513   4.722765   4.775704   4.028397   3.121268
    41  H    6.741301   7.595153   7.402976   6.206386   5.118735
    42  H    7.572476   8.418697   8.133944   6.829514   5.745710
    43  H    6.850799   7.707103   7.632892   6.598949   5.565069
    44  H    7.849813   8.697641   8.484991   7.282575   6.236709
    45  H    4.469229   5.431397   5.581677   4.736362   3.579009
    46  H    2.152780   1.094586   2.159818   3.421854   3.877946
    47  H    3.914949   3.432285   2.173748   1.091247   2.142269
    48  H    3.441854   3.874067   3.399205   2.113599   1.090114
    49  H    3.976967   2.607137   2.046729   3.325924   4.465007
    50  H    4.492369   3.326851   2.047049   2.612308   3.971949
                   26         27         28         29         30
    26  N    0.000000
    27  H    6.756352   0.000000
    28  H    5.234416   1.782270   0.000000
    29  H    5.850929   1.786260   1.786266   0.000000
    30  H    5.213489   3.616633   3.146443   4.315089   0.000000
    31  H    5.821019   4.314889   4.314270   4.902527   1.786374
    32  H    6.739661   3.147280   3.616140   4.315401   1.781725
    33  H    8.129962   2.863802   4.302462   3.821995   4.268989
    34  H   10.413547   4.921776   6.551035   5.824401   6.522966
    35  H   11.084691   6.204873   7.727237   6.736057   7.709538
    36  H   10.059759   6.594680   7.739091   6.538021   7.740443
    37  H    8.289503   6.544932   7.160425   5.961268   7.184428
    38  H    7.602723   8.749761   8.749456   8.250100   7.501617
    39  H    7.263717   7.173732   7.388231   6.849992   6.205495
    40  H    5.892143   7.400509   7.181666   6.858210   5.959317
    41  H    8.514279   9.840956   9.842153   9.001690   9.235273
    42  H    9.227079  10.397323  10.399817   9.252723  10.510937
    43  H    8.723352   8.729541   8.788109   7.298676   9.965965
    44  H    9.561462  10.099013  10.148879   8.745596  10.972177
    45  H    6.786676   6.523117   6.526966   5.154039   7.544182
    46  H    2.616255   4.303804   2.865372   3.820534   2.816268
    47  H    2.649906   7.737321   6.594866   6.533129   6.601887
    48  H    4.510762   7.158093   6.545156   5.957461   6.575425
    49  H    1.014353   6.552089   4.922999   5.821398   4.889765
    50  H    1.014355   7.726922   6.205481   6.731618   6.188994
                   31         32         33         34         35
    31  H    0.000000
    32  H    1.786333   0.000000
    33  H    3.762292   2.813561   0.000000
    34  H    5.774547   4.884796   2.379236   0.000000
    35  H    6.703671   6.183271   3.628482   1.741625   0.000000
    36  H    6.539486   6.596633   4.319285   3.662150   2.423264
    37  H    6.004820   6.571395   4.967802   5.407974   4.665457
    38  H    6.037392   7.501642   7.387686   8.331883   7.872254
    39  H    4.675106   5.948221   5.624448   6.586049   6.254336
    40  H    4.689614   6.220887   6.481503   7.878769   7.764056
    41  H    7.935358   9.233887   8.630554   9.377498   8.620438
    42  H    9.445107  10.508563   9.492465  10.138201   9.250476
    43  H    9.363177   9.914710   8.473659   9.196674   8.521621
    44  H   10.176282  10.926353   9.559037  10.151564   9.288891
    45  H    6.989297   7.541117   6.357631   7.479428   7.139895
    46  H    3.762445   4.270727   5.785376   8.144726   9.055030
    47  H    6.543138   7.742972   8.476806  10.481042  10.736323
    48  H    6.007895   7.185617   7.211317   8.875771   8.829185
    49  H    5.777028   6.526612   8.145315  10.488356  11.305544
    50  H    6.707213   7.713212   9.055335  11.305323  11.896944
                   36         37         38         39         40
    36  H    0.000000
    37  H    2.438383   0.000000
    38  H    5.980294   4.182043   0.000000
    39  H    4.564748   3.022420   1.779782   0.000000
    40  H    6.097215   4.186970   1.779639   1.771587   0.000000
    41  H    6.344224   4.257279   2.369272   3.506759   3.503176
    42  H    6.847112   4.734870   4.696828   5.372387   5.369058
    43  H    6.450967   4.641775   6.849652   6.634787   6.706482
    44  H    7.015732   5.123754   6.591913   6.768095   6.834912
    45  H    5.259888   3.243301   5.560524   4.937838   4.942131
    46  H    8.476875   7.211266   7.382938   6.460226   5.622430
    47  H    9.195479   7.026358   5.975677   6.077422   4.549009
    48  H    7.026871   4.722862   4.181029   4.173582   3.013440
    49  H   10.481460   8.875806   8.325773   7.855452   6.576138
    50  H   10.736430   8.828802   7.866072   7.741107   6.239893
                   41         42         43         44         45
    41  H    0.000000
    42  H    2.468901   0.000000
    43  H    5.402503   3.630182   0.000000
    44  H    4.684108   2.425176   1.693328   0.000000
    45  H    4.955342   4.308490   2.421830   3.627647   0.000000
    46  H    8.630024   9.495383   8.661642   9.722587   6.364512
    47  H    6.345359   6.852567   6.831082   7.360344   5.268692
    48  H    4.259790   4.739282   4.911770   5.365484   3.249313
    49  H    9.377213  10.142722   9.507131  10.427978   7.488704
    50  H    8.620523   9.255623   8.897981   9.628611   7.149457
                   46         47         48         49         50
    46  H    0.000000
    47  H    4.319592   0.000000
    48  H    4.967835   2.437821   0.000000
    49  H    2.379876   3.662109   5.407681   0.000000
    50  H    3.629082   2.423046   4.664821   1.741736   0.000000
 Stoichiometry    C22H24N3Si(1+)
 Framework group  C1[X(C22H24N3Si)]
 Deg. of freedom   144
 Full point group                 C1      NOp   1
 Largest Abelian subgroup         C1      NOp   1
 Largest concise Abelian subgroup C1      NOp   1
                         Standard orientation:                         
 ---------------------------------------------------------------------
 Center     Atomic      Atomic             Coordinates (Angstroms)
 Number     Number       Type             X           Y           Z
 ---------------------------------------------------------------------
      1          6           0       -3.660030   -0.019024   -1.823523
      2         14           0       -2.751349   -0.013384   -0.187554
      3          6           0       -3.935825   -0.019625    1.260835
      4          6           0       -1.573827   -1.476594   -0.084618
      5          6           0       -2.098531   -2.748466   -0.106825
      6          6           0       -1.270043   -3.907740   -0.034972
      7          7           0       -1.801908   -5.129065   -0.061089
      8          6           0        0.136334   -3.718615    0.065511
      9          6           0        0.663238   -2.454390    0.083778
     10          6           0       -0.152503   -1.280392    0.009349
     11          6           0        0.472375    0.003360    0.041664
     12          6           0        1.970355    0.011582    0.116761
     13          6           0        2.613205    0.019248    1.366781
     14          6           0        1.830041    0.020573    2.652655
     15          6           0        4.013071    0.023919    1.358142
     16          6           0        4.748257    0.023198    0.177469
     17          6           0        4.098874    0.018552   -1.069719
     18          7           0        4.813211    0.072439   -2.248647
     19          6           0        2.692782    0.010287   -1.076130
     20          6           0       -0.165765    1.280328    0.006580
     21          6           0       -1.589189    1.462041   -0.086203
     22          6           0       -2.126809    2.728432   -0.110239
     23          6           0       -1.309890    3.896238   -0.042338
     24          6           0        0.098524    3.721460    0.056151
     25          6           0        0.638191    2.462815    0.076584
     26          7           0       -1.853820    5.112105   -0.070694
     27          1           0       -4.295989   -0.914190   -1.905873
     28          1           0       -4.307240    0.868044   -1.905850
     29          1           0       -2.953613   -0.014559   -2.667066
     30          1           0       -4.587772    0.867200    1.228062
     31          1           0       -3.389750   -0.015869    2.216022
     32          1           0       -4.576750   -0.914491    1.228859
     33          1           0       -3.178905   -2.908392   -0.180578
     34          1           0       -2.805355   -5.257679   -0.134999
     35          1           0       -1.214038   -5.953928   -0.007699
     36          1           0        0.786583   -4.592987    0.124824
     37          1           0        1.745841   -2.351488    0.159701
     38          1           0        2.505327    0.021330    3.518630
     39          1           0        1.178873   -0.864830    2.729414
     40          1           0        1.179665    0.906755    2.727583
     41          1           0        4.544904    0.026115    2.312996
     42          1           0        5.840003    0.026370    0.211046
     43          1           0        4.329482   -0.256403   -3.077812
     44          1           0        5.776431   -0.242709   -2.198317
     45          1           0        2.161019    0.003634   -2.031196
     46          1           0       -3.208837    2.876906   -0.182962
     47          1           0        0.740192    4.602366    0.111707
     48          1           0        1.721946    2.371305    0.150405
     49          1           0       -2.858604    5.230538   -0.143458
     50          1           0       -1.273924    5.942858   -0.020842
 ---------------------------------------------------------------------
 Rotational constants (GHZ):           0.2093954           0.1837770           0.1138861
 Standard basis: def2SVP (5D, 7F)
 There are   514 symmetry adapted cartesian basis functions of A   symmetry.
 There are   488 symmetry adapted basis functions of A   symmetry.
   488 basis functions,   830 primitive gaussians,   514 cartesian basis functions
    95 alpha electrons       95 beta electrons
       nuclear repulsion energy      2416.8408542583 Hartrees.
 NAtoms=   50 NActive=   50 NUniq=   50 SFac= 1.00D+00 NAtFMM=   60 NAOKFM=F Big=F
 Integral buffers will be    131072 words long.
 Regular integral format.
 Two-electron integral symmetry is turned on.
 Force inversion solution in PCM.
 ------------------------------------------------------------------------------
 Polarizable Continuum Model (PCM)
 =================================
 Model                : PCM.
 Atomic radii         : SMD-Coulomb.
 Polarization charges : Total charges.
 Charge compensation  : None.
 Solution method      : Matrix inversion.
 Cavity type          : VdW (van der Waals Surface) (Alpha=1.000).
 Cavity algorithm     : GePol (No added spheres)
                        Default sphere list used, NSphG=   50.
                        Lebedev-Laikov grids with approx.  5.0 points / Ang**2.
                        Smoothing algorithm: York/Karplus (Gamma=1.0000).
                        Polarization charges: spherical gaussians, with
                                              point-specific exponents (IZeta= 3).
                        Self-potential: point-specific (ISelfS= 7).
                        Self-field    : sphere-specific E.n sum rule (ISelfD= 2).
 1st derivatives      : Analytical E(r).r(x)/FMM algorithm (CHGder, D1EAlg=3).
                        Cavity 1st derivative terms included.
 2nd derivatives      : Analytical E(r).r(xy)/FMM algorithm (CHGder, D2EAlg=3).
                        Cavity 2nd derivative terms included.
 Solvent              : Ethanol, Eps=  24.852000 Eps(inf)=   1.852593
 ------------------------------------------------------------------------------
 ------------------------------------------------------------------------------
 Atomic radii for non-electrostatic terms: SMD-CDS.
 ------------------------------------------------------------------------------
 Nuclear repulsion after PCM non-electrostatic terms =     2416.8413769978 Hartrees.
 One-electron integrals computed using PRISM.
   1 Symmetry operations used in ECPInt.
 ECPInt:  NShTT=   26565 NPrTT=   96561 LenC2=   23469 LenP2D=   57489.
 LDataN:  DoStor=T MaxTD1= 4 Len=   56
 NBasis=   488 RedAO= T EigKep=  2.12D-04  NBF=   488
 NBsUse=   488 1.00D-06 EigRej= -1.00D+00 NBFU=   488
 Initial guess from the checkpoint file:  "04C_Si_1_C_C2_CC_N__CC_C2C_C3_C__m062x_def2SVP_ethanol.chk"
 B after Tr=     0.000000   -0.000000   -0.000000
         Rot=    1.000000   -0.000000    0.000000   -0.000000 Ang=   0.00 deg.
 Requested convergence on RMS density matrix=1.00D-08 within 128 cycles.
 Requested convergence on MAX density matrix=1.00D-06.
 Requested convergence on             energy=1.00D-06.
 No special actions if energy rises.
 Inv3:  Mode=1 IEnd=    40252707.
 Iteration    1 A*A^-1 deviation from unit magnitude is 1.08D-14 for    646.
 Iteration    1 A*A^-1 deviation from orthogonality  is 3.45D-15 for   3326    649.
 Iteration    1 A^-1*A deviation from unit magnitude is 1.02D-14 for   1531.
 Iteration    1 A^-1*A deviation from orthogonality  is 3.82D-15 for   3189    648.
 Error on total polarization charges =  0.04866
 SCF Done:  E(RM062X) =  -1305.19381658     A.U. after    1 cycles
            NFock=  1  Conv=0.71D-08     -V/T= 2.0094
 SMD-CDS (non-electrostatic) energy       (kcal/mol) =       0.33
 (included in total energy above)
 DoSCS=F DFT=T ScalE2(SS,OS)=  1.000000  1.000000
 ExpMin= 7.80D-02 ExpMax= 6.90D+03 ExpMxC= 1.04D+03 IAcc=3 IRadAn=         5 AccDes= 0.00D+00
 HarFok:  IExCor=  205 AccDes= 0.00D+00 IRadAn=         5 IDoV=-2 UseB2=F ITyADJ=14
 ICtDFT= 12500011 ScaDFX=  1.000000  1.000000  1.000000  1.000000
 GSVD:  LWork=       -1140 too small for GESVD, short by        4950 words or        4950 for optimal perf.
 Range of M.O.s used for correlation:    31   488
 NBasis=   488 NAE=    95 NBE=    95 NFC=    30 NFV=     0
 NROrb=    458 NOA=    65 NOB=    65 NVA=   393 NVB=   393

 **** Warning!!: The largest alpha MO coefficient is  0.11451361D+02

 NEqPCM:  Using equilibrium solvation (IEInf=0, Eps=  24.8520, EpsInf=   1.8526)
 Orbital symmetries:
       Occupied  (A) (A) (A) (A) (A) (A) (A) (A) (A) (A) (A) (A)
                 (A) (A) (A) (A) (A) (A) (A) (A) (A) (A) (A) (A)
                 (A) (A) (A) (A) (A) (A) (A) (A) (A) (A) (A) (A)
                 (A) (A) (A) (A) (A) (A) (A) (A) (A) (A) (A) (A)
                 (A) (A) (A) (A) (A) (A) (A) (A) (A) (A) (A) (A)
                 (A) (A) (A) (A) (A) (A) (A) (A) (A) (A) (A) (A)
                 (A) (A) (A) (A) (A) (A) (A) (A) (A) (A) (A) (A)
                 (A) (A) (A) (A) (A) (A) (A) (A) (A) (A) (A)
       Virtual   (A) (A) (A) (A) (A) (A) (A) (A) (A) (A) (A) (A)
                 (A) (A) (A) (A) (A) (A) (A) (A) (A) (A) (A) (A)
                 (A) (A) (A) (A) (A) (A) (A) (A) (A) (A) (A) (A)
                 (A) (A) (A) (A) (A) (A) (A) (A) (A) (A) (A) (A)
                 (A) (A) (A) (A) (A) (A) (A) (A) (A) (A) (A) (A)
                 (A) (A) (A) (A) (A) (A) (A) (A) (A) (A) (A) (A)
                 (A) (A) (A) (A) (A) (A) (A) (A) (A) (A) (A) (A)
                 (A) (A) (A) (A) (A) (A) (A) (A) (A) (A) (A) (A)
                 (A) (A) (A) (A) (A) (A) (A) (A) (A) (A) (A) (A)
                 (A) (A) (A) (A) (A) (A) (A) (A) (A) (A) (A) (A)
                 (A) (A) (A) (A) (A) (A) (A) (A) (A) (A) (A) (A)
                 (A) (A) (A) (A) (A) (A) (A) (A) (A) (A) (A) (A)
                 (A) (A) (A) (A) (A) (A) (A) (A) (A) (A) (A) (A)
                 (A) (A) (A) (A) (A) (A) (A) (A) (A) (A) (A) (A)
                 (A) (A) (A) (A) (A) (A) (A) (A) (A) (A) (A) (A)
                 (A) (A) (A) (A) (A) (A) (A) (A) (A) (A) (A) (A)
                 (A) (A) (A) (A) (A) (A) (A) (A) (A) (A) (A) (A)
                 (A) (A) (A) (A) (A) (A) (A) (A) (A) (A) (A) (A)
                 (A) (A) (A) (A) (A) (A) (A) (A) (A) (A) (A) (A)
                 (A) (A) (A) (A) (A) (A) (A) (A) (A) (A) (A) (A)
                 (A) (A) (A) (A) (A) (A) (A) (A) (A) (A) (A) (A)
                 (A) (A) (A) (A) (A) (A) (A) (A) (A) (A) (A) (A)
                 (A) (A) (A) (A) (A) (A) (A) (A) (A) (A) (A) (A)
                 (A) (A) (A) (A) (A) (A) (A) (A) (A) (A) (A) (A)
                 (A) (A) (A) (A) (A) (A) (A) (A) (A) (A) (A) (A)
                 (A) (A) (A) (A) (A) (A) (A) (A) (A) (A) (A) (A)
                 (A) (A) (A) (A) (A) (A) (A) (A) (A) (A) (A) (A)
                 (A) (A) (A) (A) (A) (A) (A) (A) (A) (A) (A) (A)
                 (A) (A) (A) (A) (A) (A) (A) (A) (A) (A) (A) (A)
                 (A) (A) (A) (A) (A) (A) (A) (A) (A) (A) (A) (A)
                 (A) (A) (A) (A) (A) (A) (A) (A) (A) (A) (A) (A)
                 (A) (A) (A) (A) (A) (A) (A) (A) (A) (A) (A) (A)
                 (A) (A) (A) (A) (A) (A) (A) (A) (A)
    20 initial guesses have been made.
 Convergence on wavefunction:    0.000001000000000
 Iteration     1 Dimension    20 NMult     0 NNew     20
 CISAX will form    20 AO SS matrices at one time.
 New state      4 was old state      5
 New state      5 was old state      6
 Iteration     2 Dimension    30 NMult    20 NNew     10
 New state      1 was old state      2
 New state      2 was old state      1
 Iteration     3 Dimension    40 NMult    30 NNew     10
 Iteration     4 Dimension    50 NMult    40 NNew     10
 Iteration     5 Dimension    60 NMult    50 NNew     10
 Iteration     6 Dimension    70 NMult    60 NNew     10
 Iteration     7 Dimension    80 NMult    70 NNew     10
 Iteration     8 Dimension    90 NMult    80 NNew     10
 Iteration     9 Dimension   100 NMult    90 NNew     10
 Iteration    10 Dimension   106 NMult   100 NNew      6
 Iteration    11 Dimension   110 NMult   106 NNew      4
 Iteration    12 Dimension   114 NMult   110 NNew      4
 Iteration    13 Dimension   116 NMult   114 NNew      2
 ***********************************************************************
 Excited states from <AA,BB:AA,BB> singles matrix:
 ***********************************************************************
 
 Ground to excited state transition densities written to RWF  633
 Ground to excited state transition electric dipole moments (Au):
       state          X           Y           Z        Dip. S.      Osc.
         1        -0.0309      4.7812     -0.0032     22.8608      1.2701
         2        -0.0223     -0.7320      0.0100      0.5364      0.0344
         3        -0.0325     -0.2435      0.0019      0.0604      0.0055
         4        -0.2182      0.0041      0.0100      0.0477      0.0047
         5         0.1166      0.3770      0.0070      0.1558      0.0160
 Ground to excited state transition velocity dipole moments (Au):
       state          X           Y           Z        Dip. S.      Osc.
         1         0.0026     -0.3995      0.0002      0.1596      1.2770
         2         0.0024      0.0659     -0.0012      0.0043      0.0301
         3         0.0046      0.0295     -0.0003      0.0009      0.0043
         4         0.0278     -0.0007     -0.0017      0.0008      0.0035
         5        -0.0179     -0.0613     -0.0011      0.0041      0.0177
 Ground to excited state transition magnetic dipole moments (Au):
       state          X           Y           Z
         1         0.0401      0.0013     -0.5106
         2         0.0722      0.0115      0.2979
         3        -0.0418      0.0017      0.3471
         4        -0.0019      0.0005      0.0030
         5        -0.1349     -0.0019      1.3141
 Ground to excited state transition velocity quadrupole moments (Au):
       state          XX          YY          ZZ          XY          XZ          YZ
         1        -0.0076      0.0063      0.0011      1.0630     -0.0027      0.0316
         2         0.0191     -0.0156      0.0067     -0.1602     -0.0108     -0.0252
         3         0.0214     -0.0495      0.0059     -0.0931     -0.0036      0.0003
         4         0.8196     -2.3951      0.2695      0.0162      0.0486      0.0038
         5        -0.0308      0.2035     -0.0123      0.1667     -0.0009      0.0090
 <0|del|b> * <b|rxdel|0> + <0|del|b> * <b|delr+rdel|0>
 Rotatory Strengths (R) in cgs (10**-40 erg-esu-cm/Gauss)
       state          XX          YY          ZZ    R(velocity)    E-M Angle
         1        -6.2572     -0.6470      2.4258     -1.4928       90.15
         2         4.7603     -1.6685      1.0347      1.3755       88.41
         3         0.1802     -0.8678     -0.6446     -0.4441       91.42
         4         0.0002      0.1747     -0.4568     -0.0939       90.00
         5        -3.4973      2.3597      6.3117      1.7247       89.24
 1/2[<0|r|b>*<b|rxdel|0> + (<0|rxdel|b>*<b|r|0>)*]
 Rotatory Strengths (R) in cgs (10**-40 erg-esu-cm/Gauss)
       state          XX          YY          ZZ     R(length)
         1         0.8758     -4.4213     -1.1470     -1.5642
         2         1.1360      5.9414     -2.1125      1.6550
         3        -0.9589      0.2854     -0.4773     -0.3836
         4        -0.2978     -0.0014     -0.0211     -0.1068
         5        11.1221      0.5054     -6.4632      1.7214
  1/2[<0|del|b>*<b|r|0> + (<0|r|b>*<b|del|0>)*] (Au)
       state          X           Y           Z        Dip. S.   Osc.(frdel)
         1        -0.0001     -1.9102     -0.0000      1.9103      1.2735
         2        -0.0001     -0.0482     -0.0000      0.0483      0.0322
         3        -0.0001     -0.0072     -0.0000      0.0073      0.0049
         4        -0.0061     -0.0000     -0.0000      0.0061      0.0041
         5        -0.0021     -0.0231     -0.0000      0.0252      0.0168

 Excitation energies and oscillator strengths:
 
 Excited State   1:      Singlet-A      2.2677 eV  546.74 nm  f=1.2701  <S**2>=0.000
      94 -> 96        -0.32874
      95 -> 96         0.61833
 This state for optimization and/or second-order correction.
 Total Energy, E(TD-HF/TD-DFT) =  -1305.11048020    
 Copying the excited state density for this state as the 1-particle RhoCI density.
 
 Excited State   2:      Singlet-A      2.6197 eV  473.27 nm  f=0.0344  <S**2>=0.000
      94 -> 96         0.61787
      95 -> 96         0.32968
 
 Excited State   3:      Singlet-A      3.7430 eV  331.24 nm  f=0.0055  <S**2>=0.000
      89 -> 96         0.12642
      93 -> 96         0.68267
 
 Excited State   4:      Singlet-A      4.0322 eV  307.49 nm  f=0.0047  <S**2>=0.000
      91 -> 96         0.49075
      92 -> 96        -0.48517
 
 Excited State   5:      Singlet-A      4.1896 eV  295.93 nm  f=0.0160  <S**2>=0.000
      90 -> 96         0.66060
      94 -> 97         0.11294
      95 -> 97        -0.17408
 SavETr:  write IOETrn=   770 NScale= 10 NData=  16 NLR=1 NState=    5 LETran=     100.
          IDoAtm=11111111111111111111111111111111111111111111111111
 NEqPCM:  Using equilibrium solvation (IEInf=0, Eps=  24.8520, EpsInf=   1.8526)
          Differentiating once with respect to electric field.
                with respect to dipole field.
          Differentiating once with respect to nuclear coordinates.
          There are     1 degrees of freedom in the 1st order CPHF.  IDoFFX=0 NUNeed=     1.
 LinEq1:  Iter=  0 NonCon=     1 RMS=2.66D-03 Max=3.31D-01 NDo=     1
 AX will form     1 AO Fock derivatives at one time.
 LinEq1:  Iter=  1 NonCon=     1 RMS=1.11D-03 Max=1.17D-01 NDo=     1
 LinEq1:  Iter=  2 NonCon=     1 RMS=6.58D-04 Max=4.39D-02 NDo=     1
 LinEq1:  Iter=  3 NonCon=     1 RMS=1.35D-04 Max=9.10D-03 NDo=     1
 LinEq1:  Iter=  4 NonCon=     1 RMS=8.14D-05 Max=4.22D-03 NDo=     1
 LinEq1:  Iter=  5 NonCon=     1 RMS=2.99D-05 Max=1.28D-03 NDo=     1
 LinEq1:  Iter=  6 NonCon=     1 RMS=1.63D-05 Max=1.11D-03 NDo=     1
 LinEq1:  Iter=  7 NonCon=     1 RMS=7.62D-06 Max=3.35D-04 NDo=     1
 LinEq1:  Iter=  8 NonCon=     1 RMS=3.24D-06 Max=1.67D-04 NDo=     1
 LinEq1:  Iter=  9 NonCon=     1 RMS=1.32D-06 Max=7.42D-05 NDo=     1
 LinEq1:  Iter= 10 NonCon=     1 RMS=6.18D-07 Max=2.90D-05 NDo=     1
 LinEq1:  Iter= 11 NonCon=     1 RMS=2.84D-07 Max=2.03D-05 NDo=     1
 LinEq1:  Iter= 12 NonCon=     1 RMS=1.43D-07 Max=1.10D-05 NDo=     1
 LinEq1:  Iter= 13 NonCon=     1 RMS=7.27D-08 Max=4.69D-06 NDo=     1
 LinEq1:  Iter= 14 NonCon=     1 RMS=3.04D-08 Max=1.21D-06 NDo=     1
 LinEq1:  Iter= 15 NonCon=     1 RMS=1.01D-08 Max=4.13D-07 NDo=     1
 LinEq1:  Iter= 16 NonCon=     1 RMS=4.70D-09 Max=2.03D-07 NDo=     1
 LinEq1:  Iter= 17 NonCon=     1 RMS=2.01D-09 Max=7.09D-08 NDo=     1
 LinEq1:  Iter= 18 NonCon=     1 RMS=7.06D-10 Max=1.66D-08 NDo=     1
 LinEq1:  Iter= 19 NonCon=     1 RMS=3.37D-10 Max=1.55D-08 NDo=     1
 LinEq1:  Iter= 20 NonCon=     1 RMS=1.37D-10 Max=4.96D-09 NDo=     1
 LinEq1:  Iter= 21 NonCon=     1 RMS=5.87D-11 Max=2.38D-09 NDo=     1
 LinEq1:  Iter= 22 NonCon=     0 RMS=1.74D-11 Max=5.28D-10 NDo=     1
 Linear equations converged to 1.000D-10 1.000D-09 after    22 iterations.
          There are     1 degrees of freedom in the 1st order CPHF.  IDoFFX=0 NUNeed=     1.
 End of Minotr F.D. properties file   721 does not exist.
 End of Minotr F.D. properties file   722 does not exist.
 End of Minotr F.D. properties file   788 does not exist.
   1 Symmetry operations used in ECPInt.
 ECPInt:  NShTT=   26565 NPrTT=   96561 LenC2=   23469 LenP2D=   57489.
 LDataN:  DoStor=T MaxTD1= 5 Len=  102
 Number of processors reduced to  28 by ecpmxn.
 Symmetrizing basis deriv contribution to polar:
 IMax=3 JMax=2 DiffMx= 0.00D+00
 G2DrvN: will do    51 centers at a time, making    1 passes.
 Calling FoFCou, ICntrl=  3107 FMM=F I1Cent=   0 AccDes= 0.00D+00.
 NEqPCM:  Using equilibrium solvation (IEInf=0, Eps=  24.8520, EpsInf=   1.8526)
 G2PCM: DoFxE=T DoFxN=T DoGrad=T DoDP/DQ/DG/TGxP=FFFF NFrqRd=   0 IEInf=0 SqF1=F DoCFld=F IF1Alg=4.
 G2DrvN: will do    51 centers at a time, making    1 passes.
 Calling FoFCou, ICntrl=  3107 FMM=F I1Cent=   0 AccDes= 0.00D+00.
 NEqPCM:  Using equilibrium solvation (IEInf=0, Eps=  24.8520, EpsInf=   1.8526)
 G2PCM: DoFxE=T DoFxN=F DoGrad=F DoDP/DQ/DG/TGxP=FFFF NFrqRd=   0 IEInf=0 SqF1=F DoCFld=F IF1Alg=4.
 G2DrvN: will do    51 centers at a time, making    1 passes.
 Calling FoFCou, ICntrl=  3107 FMM=F I1Cent=   0 AccDes= 0.00D+00.
 NEqPCM:  Using equilibrium solvation (IEInf=0, Eps=  24.8520, EpsInf=   1.8526)
 G2PCM: DoFxE=T DoFxN=F DoGrad=F DoDP/DQ/DG/TGxP=FFFF NFrqRd=   0 IEInf=0 SqF1=T DoCFld=F IF1Alg=4.
 End of G2Drv F.D. properties file   721 does not exist.
 End of G2Drv F.D. properties file   722 does not exist.
 End of G2Drv F.D. properties file   788 does not exist.
          IDoAtm=11111111111111111111111111111111111111111111111111
 NEqPCM:  Using equilibrium solvation (IEInf=0, Eps=  24.8520, EpsInf=   1.8526)
          Differentiating once with respect to electric field.
                with respect to dipole field.
          Differentiating once with respect to nuclear coordinates.
 CalDSu exits because no D1Ps are significant.
          There are   153 degrees of freedom in the 1st order CPHF.  IDoFFX=6 NUNeed=   153.
    150 vectors produced by pass  0 Test12= 3.73D-14 1.00D-09 XBig12= 6.96D+02 1.90D+01.
 AX will form   150 AO Fock derivatives at one time.
    150 vectors produced by pass  1 Test12= 3.73D-14 1.00D-09 XBig12= 3.61D+01 6.51D-01.
    150 vectors produced by pass  2 Test12= 3.73D-14 1.00D-09 XBig12= 5.33D-01 9.89D-02.
    150 vectors produced by pass  3 Test12= 3.73D-14 1.00D-09 XBig12= 4.59D-03 8.01D-03.
    150 vectors produced by pass  4 Test12= 3.73D-14 1.00D-09 XBig12= 2.62D-05 6.38D-04.
    150 vectors produced by pass  5 Test12= 3.73D-14 1.00D-09 XBig12= 1.09D-07 2.65D-05.
     84 vectors produced by pass  6 Test12= 3.73D-14 1.00D-09 XBig12= 3.61D-10 1.40D-06.
      7 vectors produced by pass  7 Test12= 3.73D-14 1.00D-09 XBig12= 8.96D-13 8.13D-08.
      3 vectors produced by pass  8 Test12= 3.73D-14 1.00D-09 XBig12= 2.22D-15 4.21D-09.
 InvSVY:  IOpt=1 It=  1 EMax= 7.82D-14
 Solved reduced A of dimension   994 with   153 vectors.
 Isotropic polarizability for W=    0.000000      554.73 Bohr**3.
 End of Minotr F.D. properties file   721 does not exist.
 End of Minotr F.D. properties file   722 does not exist.
 End of Minotr F.D. properties file   788 does not exist.
 This link is doing   153 degrees of freedom
 Form MO integral derivatives with frozen-active canonical formalism.
 CISSec: MDV=   17179847159
 Doing TD-HF/TD-DFT second derivatives, IDoFFX=6 IOneXC=4 IRadAn=         1.
 Frozen orbitals handled with amplitudes over full window.
 CISAX will form   153 AO SS matrices at one time.
    150 vectors produced by pass  0 Test12= 5.11D-14 1.00D-09 XBig12= 3.32D+02 1.28D+01.
 AX will form   150 AO Fock derivatives at one time.
    150 vectors produced by pass  1 Test12= 5.11D-14 1.00D-09 XBig12= 2.75D+01 2.14D+00.
    150 vectors produced by pass  2 Test12= 5.11D-14 1.00D-09 XBig12= 1.45D+00 4.01D-01.
    150 vectors produced by pass  3 Test12= 5.11D-14 1.00D-09 XBig12= 1.68D-02 1.60D-02.
    150 vectors produced by pass  4 Test12= 5.11D-14 1.00D-09 XBig12= 2.39D-04 2.21D-03.
    144 vectors produced by pass  5 Test12= 5.11D-14 1.00D-09 XBig12= 2.49D-06 1.87D-04.
     84 vectors produced by pass  6 Test12= 5.11D-14 1.00D-09 XBig12= 2.01D-08 1.72D-05.
     21 vectors produced by pass  7 Test12= 5.11D-14 1.00D-09 XBig12= 1.14D-10 1.19D-06.
      2 vectors produced by pass  8 Test12= 5.11D-14 1.00D-09 XBig12= 7.29D-13 8.24D-08.
      1 vectors produced by pass  9 Test12= 5.11D-14 1.00D-09 XBig12= 4.90D-15 6.06D-09.
 InvSVY:  IOpt=1 It=  1 EMax= 1.76D-14
 Solved reduced A of dimension  1002 with   153 vectors.
 Tx.T =  1.19D-04 for pert.     1
 Tx.T = -2.74D-05 for pert.    36
 Tx.T =  2.34D-05 for pert.    63
 Tx.T =  2.30D-05 for pert.    33
 Tx.T =  1.69D-05 for pert.     3
 Tx.T = -1.02D-05 for pert.     9
 Tx.T = -6.41D-06 for pert.     2
 Tx.T =  5.76D-06 for pert.    27
 Tx.T = -5.68D-06 for pert.    21
 Tx.T =  5.61D-06 for pert.    68
 SavDET:  read IOETrn=   770 NScale= 10 NData=  16 NLR=1 NState=    5 NDeriv=    0 LETran=     100.
 SavDET: write IOETrn=   770 NScale= 10 NData=  16 NLR=1 NState=    5 NDeriv=  153 LETran=    2548.
 TDDxLx will form   153 C1x/S1x matrices at one time.
 Interchange theorem applied.
 D1PCM: PCM CHGder 1st derivatives, ID1Alg=3 FixD1E=F DoIter=F DoCFld=F I1PDM=6.

 **********************************************************************

            Population analysis using the SCF density.

 **********************************************************************

 Orbital symmetries:
       Occupied  (A) (A) (A) (A) (A) (A) (A) (A) (A) (A) (A) (A)
                 (A) (A) (A) (A) (A) (A) (A) (A) (A) (A) (A) (A)
                 (A) (A) (A) (A) (A) (A) (A) (A) (A) (A) (A) (A)
                 (A) (A) (A) (A) (A) (A) (A) (A) (A) (A) (A) (A)
                 (A) (A) (A) (A) (A) (A) (A) (A) (A) (A) (A) (A)
                 (A) (A) (A) (A) (A) (A) (A) (A) (A) (A) (A) (A)
                 (A) (A) (A) (A) (A) (A) (A) (A) (A) (A) (A) (A)
                 (A) (A) (A) (A) (A) (A) (A) (A) (A) (A) (A)
       Virtual   (A) (A) (A) (A) (A) (A) (A) (A) (A) (A) (A) (A)
                 (A) (A) (A) (A) (A) (A) (A) (A) (A) (A) (A) (A)
                 (A) (A) (A) (A) (A) (A) (A) (A) (A) (A) (A) (A)
                 (A) (A) (A) (A) (A) (A) (A) (A) (A) (A) (A) (A)
                 (A) (A) (A) (A) (A) (A) (A) (A) (A) (A) (A) (A)
                 (A) (A) (A) (A) (A) (A) (A) (A) (A) (A) (A) (A)
                 (A) (A) (A) (A) (A) (A) (A) (A) (A) (A) (A) (A)
                 (A) (A) (A) (A) (A) (A) (A) (A) (A) (A) (A) (A)
                 (A) (A) (A) (A) (A) (A) (A) (A) (A) (A) (A) (A)
                 (A) (A) (A) (A) (A) (A) (A) (A) (A) (A) (A) (A)
                 (A) (A) (A) (A) (A) (A) (A) (A) (A) (A) (A) (A)
                 (A) (A) (A) (A) (A) (A) (A) (A) (A) (A) (A) (A)
                 (A) (A) (A) (A) (A) (A) (A) (A) (A) (A) (A) (A)
                 (A) (A) (A) (A) (A) (A) (A) (A) (A) (A) (A) (A)
                 (A) (A) (A) (A) (A) (A) (A) (A) (A) (A) (A) (A)
                 (A) (A) (A) (A) (A) (A) (A) (A) (A) (A) (A) (A)
                 (A) (A) (A) (A) (A) (A) (A) (A) (A) (A) (A) (A)
                 (A) (A) (A) (A) (A) (A) (A) (A) (A) (A) (A) (A)
                 (A) (A) (A) (A) (A) (A) (A) (A) (A) (A) (A) (A)
                 (A) (A) (A) (A) (A) (A) (A) (A) (A) (A) (A) (A)
                 (A) (A) (A) (A) (A) (A) (A) (A) (A) (A) (A) (A)
                 (A) (A) (A) (A) (A) (A) (A) (A) (A) (A) (A) (A)
[...]
 0000025,-0.00000223,0.00000124,0.00000032,0.00000246,-0.00000158,0.000
 00251,-0.00000336,0.00000144,-0.00000449,0.00001388,-0.00000722,0.0000
 2321,-0.00000019,-0.00000413,-0.00000453,-0.00000327,0.00000184,0.0000
 0415,0.00000340,0.00000217,-0.00000596,0.00000085,-0.00001069,0.000011
 47,-0.00000322,-0.00000036,0.00000410,-0.00000537,-0.00000156,0.000006
 08,0.00001145,-0.00000406,0.00000350,0.00001617,-0.00000024,-0.0000010
 9,-0.00000848,0.00000165,0.00000347,-0.00000354,-0.00000003,-0.0000023
 4,-0.00000927,-0.00000807,0.00000429,0.00000539,-0.00001144,-0.0000029
 4,0.00000132,-0.00000288,-0.00000267,0.00000518,-0.00010007,-0.0000417
 3,-0.08716423,0.33469888,0.00006738,-0.00006050,-0.00000551,0.00000634
 ,0.00004068,-0.00029603,-0.00004548,0.00004967,-0.00000473,-0.00008287
 ,0.00001974,0.00024842,-0.00002019,-0.00003190,-0.00013097,-0.00002154
 ,0.00012829,-0.00004874,0.00001071,-0.00012323,0.00000156,0.00005533,-
 0.00006344,0.00000298,-0.00001305,0.00000016,0.00031747,0.00000131,0.0
 0004596,-0.00047025,0.00031770,-0.00021902,-0.00081399,-0.00002620,-0.
 00002177,0.00007208,0.00024767,0.00005306,-0.00001693,0.00003986,-0.00
 002900,0.00009743,-0.00022341,0.00012108,-0.00014317,-0.00009603,-0.00
 001133,0.00024596,0.00012873,-0.00000851,-0.00021188,0.00000891,-0.000
 08907,0.00016204,-0.00001784,-0.00012949,0.00006597,-0.00247097,-0.001
 70259,0.00850276,0.00013250,0.00017618,-0.00124077,-0.00135383,-0.0003
 4990,0.00341505,-0.00205574,0.00365664,0.00430132,0.00542024,-0.029632
 70,-0.04084706,0.00173508,-0.00690307,0.00546884,0.00054933,0.00066170
 ,-0.00162337,0.00002888,0.00000614,-0.00001054,0.00001041,-0.00000806,
 -0.00001015,-0.00000865,-0.00000268,0.00001179,-0.00000334,0.00001002,
 -0.00000444,0.00000376,-0.00000013,0.00001326,-0.00002098,-0.00000371,
 -0.00001378,-0.00000270,-0.00000522,0.00002635,-0.00001489,0.00001031,
 -0.00002527,0.00001039,0.00000448,0.00004490,0.00001273,0.00000494,-0.
 00007425,0.00000231,0.00000254,-0.00001853,-0.00000095,-0.00000020,-0.
 00000227,-0.00003683,0.00002688,0.00000699,-0.00005860,-0.00002356,0.0
 0000332,-0.00000400,-0.00000539,-0.00000868,0.00000086,-0.00000112,0.0
 0000430,0.00002155,0.00001139,-0.00001113,-0.00001793,0.00002986,0.000
 00008,-0.00000234,0.00000868,0.00000115,-0.00007238,0.00019313,0.00019
 526,-0.00347926,0.03315396,0.02880765,-0.00003093,0.00007799,0.0000034
 2,0.00003519,-0.00038897,-0.00009101,-0.00002489,0.00009676,0.00001861
 ,0.00002423,0.00009893,-0.00001570,0.00003163,-0.00001320,0.00000914,0
 .00000150,-0.00003596,-0.00000966,0.00000537,0.00002744,0.00000590,0.0
 0002990,0.00000457,-0.00000490,-0.00010223,-0.00008677,-0.00001831,0.0
 0004738,-0.00008321,0.00007967,-0.00091464,-0.00023219,0.00011843,-0.0
 0177608,-0.00370734,-0.00114180,-0.00054720,-0.00155894,-0.00020832,-0
 .00015983,0.00016882,-0.00033148,0.00020904,0.00011013,0.00005067,-0.0
 0007892,0.00038126,0.00005936,0.00025441,-0.00004523,-0.00018705,-0.00
 000412,-0.00007859,0.00015974,-0.00060100,-0.00121274,-0.00011870,-0.0
 0266205,0.00001786,-0.00127555,0.00070726,0.00125369,-0.00034184,0.000
 60039,-0.00037645,0.00021828,0.00006178,-0.00209900,-0.00208965,-0.012
 73202,0.00647121,-0.00240666,-0.32617095,0.07742198,-0.03760575,-0.000
 74748,0.00024411,-0.00007741,-0.00002142,-0.00000388,0.00001999,-0.000
 00212,-0.00000339,0.00000029,0.00000169,-0.00000179,-0.00000101,0.0000
 0044,-0.00000594,0.00000306,0.00000257,-0.00000255,0.00000129,-0.00001
 268,0.00000565,-0.00003094,0.00000019,0.00000129,0.00000010,0.00001468
 ,-0.00001038,0.00000566,-0.00001356,-0.00000861,-0.00000836,-0.0000031
 9,0.00000463,0.00000406,0.00005976,-0.00002222,0.00001257,0.00000402,0
 .00001489,0.00000320,0.00006156,0.00002410,-0.00002226,0.00020458,0.00
 023613,-0.00005860,-0.00000204,0.00001193,-0.00000137,0.00000070,-0.00
 000317,0.00000571,0.00002008,0.00001043,0.00000042,-0.00000895,0.00001
 853,0.00000273,0.00005881,0.00016540,0.00006582,-0.00009979,-0.0000145
 4,0.00009480,0.00082325,0.00016767,0.00127205,0.34353599,0.00006363,-0
 .00033817,-0.00006264,0.00049354,0.00083322,0.00019658,0.00006190,-0.0
 0034208,-0.00001689,-0.00002238,-0.00004479,-0.00004389,-0.00007619,0.
 00004158,-0.00000451,-0.00002599,-0.00000272,-0.00000561,-0.00000771,-
 0.00001629,-0.00000187,0.00001441,-0.00003593,-0.00001318,0.00004743,0
 .00008965,0.00000896,-0.00010709,-0.00000520,0.00006961,0.00073178,0.0
 0083907,0.00057200,-0.00149874,-0.00271958,-0.00066887,-0.00046641,-0.
 00042816,0.00030604,-0.00004406,-0.00000209,0.00000710,-0.00033642,0.0
 0018498,-0.00025211,0.00006161,-0.00015464,0.00033409,-0.00001960,0.00
 011028,-0.00051361,0.00007807,-0.00022991,0.00037671,-0.00039087,0.000
 06691,-0.00056072,0.02581435,-0.00195056,0.00361927,0.00156031,-0.0052
 1024,-0.00117550,-0.00070572,-0.00044631,-0.00004069,-0.00255145,-0.00
 300660,-0.00244596,-0.02255461,0.00865807,-0.00363403,0.07760322,-0.07
 631734,0.00793707,-0.00101945,0.00075834,-0.00004406,0.00006831,0.0000
 0229,-0.00009288,-0.00001485,0.00001541,0.00002383,-0.00000266,0.00000
 617,-0.00000476,-0.00000550,0.00002169,-0.00002068,-0.00000378,0.00000
 359,0.00000602,0.00004154,-0.00002403,0.00010634,0.00000279,0.00000920
 ,0.00000029,-0.00000005,0.00000065,0.00000453,0.00000281,-0.00000182,-
 0.00000421,-0.00000359,0.00000037,0.00000308,-0.00003466,-0.00000580,-
 0.00000379,0.00002410,0.00004206,-0.00005765,0.00001776,0.00003774,-0.
 00006247,0.00003846,0.00003695,0.00000703,0.00003230,-0.00002095,-0.00
 003036,0.00003329,0.00000631,0.00002216,0.00004191,0.00003029,-0.00001
 801,-0.00002335,0.00003972,0.00001450,0.00001653,0.00003159,0.00006183
 ,0.00000061,0.00012312,0.00012471,0.00010591,0.00076749,0.00109126,-0.
 07692475,0.07874778,0.00003274,0.00002421,-0.00000824,0.00001251,0.000
 02610,0.00024179,-0.00000405,-0.00009873,-0.00002432,-0.00005812,0.000
 05261,0.00014101,-0.00005470,-0.00005452,-0.00003309,-0.00003160,0.000
 12193,0.00002533,0.00001482,-0.00013374,-0.00002475,0.00006557,-0.0000
 7559,0.00006351,0.00001187,0.00006609,0.00001292,0.00008423,0.00003813
 ,-0.00047779,0.00019963,0.00031801,-0.00169326,-0.00068939,-0.00118164
 ,0.00034720,0.00043737,0.00014240,-0.00002319,0.00000698,-0.00005594,0
 .00003504,-0.00014109,0.00004962,-0.00020284,-0.00014980,0.00003325,0.
 00046073,0.00013747,0.00017557,-0.00042642,0.00002072,-0.00020817,0.00
 025805,-0.00045254,-0.00079924,-0.00045587,0.00282905,-0.00069193,0.00
 419344,-0.00028592,-0.00121238,0.00363841,0.00010919,-0.00000069,-0.00
 095989,-0.00218041,-0.00235968,0.00907727,-0.00667385,0.00154237,0.005
 86383,-0.03809451,0.00778962,-0.04543422,-0.00023243,0.00023660,-0.000
 11608,0.00000695,0.00000466,0.00000640,0.00000975,-0.00000226,-0.00000
 984,0.00000310,-0.00000085,-0.00000205,-0.00000640,0.00000965,-0.00001
 370,-0.00000406,0.00000213,-0.00000138,0.00000092,-0.00001279,0.000028
 82,0.00000173,-0.00000032,0.00000772,-0.00001043,0.00000714,-0.0000240
 3,0.00000980,0.00000301,0.00002564,0.00000123,0.00000187,-0.00001886,0
 .00001225,0.00000176,-0.00003173,-0.00000860,-0.00000090,-0.00000838,-
 0.00005142,0.00001663,-0.00000611,-0.00005516,0.00004820,-0.00007708,0
 .00000907,-0.00000704,-0.00001992,0.00001258,0.00000080,-0.00000770,0.
 00002777,0.00001677,-0.00002216,-0.00002775,0.00005174,0.00000651,0.00
 002277,0.00004906,-0.00000022,0.00010000,0.00011258,-0.00061707,0.0012
 1381,0.00108002,-0.00566028,0.04379236,-0.00512419,0.03234926,-0.00007
 832,0.00014884,0.00000510,0.00037129,-0.00066266,-0.00007098,-0.000074
 09,0.00015134,0.00002279,-0.00045597,0.00066005,-0.00002363,0.00011032
 ,-0.00019037,0.00001012,-0.00009252,-0.00002885,0.00002348,0.00001261,
 0.00007476,0.00000143,0.00007718,-0.00034493,-0.00001429,0.00020574,0.
 00074279,0.00012964,0.00043805,-0.00287280,-0.00034733,0.00080124,0.00
 356055,0.00055529,-0.00005868,0.00017766,0.00007709,0.00042127,-0.0001
 9035,0.00001766,0.00005597,-0.00003157,0.00011878,-0.00032233,0.000139
 84,-0.00031052,-0.00012112,-0.00002787,0.00034056,-0.00023571,0.000174
 66,-0.00049290,0.00012850,-0.00033621,0.00048991,0.00048781,-0.0001666
 5,0.00002026,-0.00129875,-0.00120463,-0.00047980,0.00015287,-0.0000791
 8,0.00016842,0.00143486,0.00309559,0.00129559,-0.01830324,0.00121284,-
 0.00263408,0.00232541,-0.00246073,-0.00100478,-0.00074968,0.00106984,-
 0.00019359,-0.42358621,0.09159367,-0.05652968,-0.00003664,0.00000219,0
 .00004483,-0.00000926,0.00000358,0.00001106,0.00001037,-0.00000581,-0.
 00000526,-0.00000358,0.00000014,-0.00000980,0.00000819,-0.00000899,0.0
 0000665,-0.00002141,0.00001748,-0.00005157,-0.00000220,0.00001197,-0.0
 0000641,0.00007873,-0.00004167,0.00000384,-0.00006793,-0.00004838,-0.0
 0002053,-0.00000110,0.00001202,-0.00001165,0.00001521,-0.00000625,-0.0
 0001015,0.00001116,-0.00000469,-0.00001678,-0.00004996,0.00003340,0.00
 000841,-0.00007187,-0.00000254,-0.00000707,0.00002551,0.00001365,-0.00
 001121,0.00001779,-0.00000465,0.00000645,0.00007003,0.00004468,-0.0000
 4115,-0.00005041,0.00009503,0.00001263,-0.00000974,0.00001306,0.000007
 56,-0.00019358,-0.00100753,-0.00021296,0.00010203,0.00001334,0.0001004
 8,-0.00008311,-0.00017226,0.00006034,0.43807782,0.00002721,-0.00003067
 ,0.00000867,-0.00014321,0.00007488,-0.00004823,0.00003314,-0.00002060,
 0.00000054,0.00026180,-0.00018219,-0.00000948,-0.00000474,0.00007078,0
 .00003062,0.00011367,-0.00007018,0.00001452,-0.00001980,0.00005474,0.0
 0000242,-0.00011341,0.00021800,-0.00000066,-0.00013885,-0.00038358,-0.
 00007868,-0.00018945,0.00113309,0.00013394,-0.00032446,-0.00141487,-0.
 00019608,0.00001904,-0.00007958,-0.00002474,-0.00018705,0.00005739,-0.
 00002312,-0.00002358,0.00001557,-0.00005744,0.00015021,-0.00006923,0.0
 0013511,0.00005303,0.00001625,-0.00015883,0.00007540,-0.00007058,0.000
 21424,-0.00004950,0.00013870,-0.00020536,-0.00018773,0.00005515,-0.000
 00884,0.00049976,0.00070770,0.00019978,0.00014751,0.00003170,0.0000832
 2,-0.00197584,0.00063962,0.00031442,-0.02504748,0.01194816,-0.00222968
 ,-0.00210498,-0.00354445,-0.00180978,-0.00090049,0.00053687,-0.0002213
 0,0.09340544,-0.09139261,0.00332394,0.00001095,0.00000074,-0.00000923,
 0.00001224,-0.00000448,-0.00001190,-0.00000432,0.00000300,0.00000479,0
 .00000946,-0.00001328,0.00001139,-0.00000319,0.00000177,-0.00000311,0.
 00000843,-0.00000050,0.00001124,-0.00000075,-0.00000475,-0.00000681,-0
 .00001529,0.00000849,0.00000524,0.00001267,0.00001099,-0.00000482,0.00
 000021,-0.00000350,0.00000944,-0.00000234,0.00000017,0.00000947,-0.000
 00430,0.00000099,0.00000789,0.00002191,-0.00001774,-0.00000210,0.00003
 281,0.00000428,0.00000136,-0.00001015,-0.00000344,0.00000574,-0.000007
 13,0.00000196,-0.00000318,-0.00002924,-0.00001850,0.00001700,0.0000211
 8,-0.00003815,-0.00000482,0.00000480,-0.00000268,-0.00000289,0.0011353
 4,-0.00012177,0.00021714,-0.00017219,0.00008837,0.00007131,-0.00015505
 ,-0.00025388,0.00003437,-0.09003656,0.07996839,0.00001661,0.00004716,-
 0.00001504,-0.00001646,-0.00012005,0.00020383,-0.00001797,-0.00000053,
 -0.00002600,-0.00010331,0.00008254,0.00020462,0.00001964,-0.00002561,-
 0.00013138,-0.00000696,0.00005292,-0.00008747,0.00000273,-0.00004001,0
 .00001761,0.00002842,-0.00006384,0.00001252,0.00002487,0.00010020,0.00
 006240,0.00005009,-0.00033577,-0.00005918,0.00011033,0.00041135,-0.000
 07602,0.00000355,0.00002857,-0.00004220,0.00017239,-0.00001890,0.00001
 863,0.00002178,-0.00002070,0.00006048,-0.00015977,0.00008039,-0.000121
 40,-0.00006878,-0.00001151,0.00018109,0.00003050,0.00003189,-0.0001896
 8,0.00002203,-0.00010235,0.00015975,0.00007392,-0.00008292,0.00005220,
 -0.00015399,-0.00011961,0.00007537,0.00010633,0.00004888,-0.00049969,0
 .00054313,0.00113364,-0.00321016,-0.00658250,0.00217859,-0.00242423,-0
 .00097509,-0.00187081,0.00579339,-0.00045002,0.00008939,0.00103324,-0.
 05612280,0.00315412,-0.01730018,-0.00000322,0.00000483,0.00000877,0.00
 000734,-0.00001702,-0.00000288,0.00000163,-0.00000686,-0.00000602,-0.0
 0000508,0.00001476,0.00000258,0.00000201,0.00000641,-0.00000385,-0.000
 00336,-0.00000246,-0.00000433,-0.00000651,-0.00000446,0.00004049,0.000
 00714,0.00000051,-0.00002490,-0.00000938,-0.00000837,0.00004192,0.0000
 0392,0.00000371,-0.00002533,0.00000601,0.00000101,-0.00002428,0.000001
 54,0.00000024,-0.00000458,-0.00002508,0.00002368,0.00000462,-0.0000348
 6,-0.00000621,-0.00000286,0.00000364,-0.00000048,-0.00000615,0.0000033
 4,-0.00000119,0.00000302,0.00002172,0.00001393,-0.00001195,-0.00001767
 ,0.00002969,0.00000147,-0.00000400,0.00000357,0.00000087,0.00010938,-0
 .00018553,0.00019116,0.00008094,0.00010383,-0.00053128,0.00008446,0.00
 003806,-0.00065317,0.05891441,-0.00475422,0.01903978,0.00005331,-0.000
 08902,-0.00000413,-0.00034604,0.00043683,0.00007191,0.00004622,-0.0001
 0354,-0.00001060,0.00030175,-0.00041901,0.00005607,-0.00006194,0.00009
 871,-0.00003595,0.00009341,-0.00005128,-0.00004118,-0.00002344,0.00001
 344,0.00001133,-0.00009709,0.00020528,0.00000100,-0.00016167,-0.000393
 43,-0.00004919,-0.00017745,0.00128441,0.00015761,-0.00049480,-0.001504
 48,-0.00030662,0.00004254,-0.00008840,-0.00003248,-0.00015611,0.000084
 19,-0.00001059,-0.00002300,0.00000802,-0.00004199,0.00011177,-0.000048
 03,0.00011778,0.00004016,0.00001299,-0.00012155,0.00008824,-0.00006411
 ,0.00017226,-0.00004821,0.00012646,-0.00017618,-0.00018631,0.00007115,
 -0.00000247,0.00101352,0.00051947,0.00026933,0.00032749,-0.00106683,-0
 .00029039,-0.00316087,-0.00225758,-0.00191098,0.01293951,-0.02365096,-
 0.00094428,0.00042585,-0.00210517,0.00032098,0.00000909,0.00005377,0.0
 0014689,-0.10237797,0.11256423,0.00053788,0.00002473,-0.00000145,-0.00
 002820,0.00000344,-0.00000053,-0.00000491,-0.00000469,0.00000358,0.000
 00275,0.00000232,0.00000046,0.00000281,-0.00000550,0.00000340,-0.00000
 248,0.00001604,-0.00001096,0.00003616,-0.00000117,-0.00000629,0.000012
 88,-0.00001977,0.00001317,-0.00000574,0.00001716,0.00001047,0.00001516
 ,0.00000097,-0.00000333,-0.00000082,-0.00000629,-0.00000097,0.00000179
 ,-0.00000550,0.00000111,0.00000716,0.00001808,-0.00001028,-0.00000181,
 0.00002834,-0.00000237,0.00000188,-0.00001221,-0.00000603,0.00000369,-
 0.00000749,0.00000080,-0.00000275,-0.00002547,-0.00001791,0.00001442,0
 .00001753,-0.00003585,-0.00000574,0.00000388,-0.00000699,-0.00000255,0
 .00008941,-0.00019298,0.00011584,-0.00039184,0.00113954,-0.00003451,0.
 00000280,0.00005558,-0.00003434,0.00053741,0.02579488,0.00429298,0.091
 53988,-0.00005386,0.00012175,-0.00000618,0.00016115,-0.00055818,0.0000
 0280,-0.00006238,0.00010263,0.00001894,-0.00042389,0.00053314,0.000053
 01,0.00007364,-0.00018643,-0.00005238,-0.00010329,0.00000392,-0.000024
 43,0.00001338,0.00002847,0.00000904,0.00009724,-0.00036461,-0.00001149
 ,0.00019677,0.00075218,0.00016110,0.00044468,-0.00282957,-0.00034082,0
 .00076473,0.00353478,0.00047200,-0.00004804,0.00017288,0.00006770,0.00
 046278,-0.00018087,0.00002307,0.00006098,-0.00004063,0.00013461,-0.000
 36590,0.00016207,-0.00033970,-0.00013859,-0.00003424,0.00038790,-0.000
 22524,0.00018931,-0.00054433,0.00013103,-0.00036834,0.00053178,0.00050
 100,-0.00017569,0.00003127,-0.00137396,-0.00102553,-0.00044892,0.00100
 124,-0.00059691,0.00002095,-0.00283975,0.00211198,-0.00110788,0.003033
 30,-0.01963168,-0.00208883,0.00292263,0.00162339,0.00128940,-0.0002335
 7,0.00021527,0.00004697,0.11029116,-0.41308006,-0.04206501,-0.00002823
 ,0.00000350,0.00003492,-0.00000673,-0.00000196,0.00000464,0.00001012,-
 0.00000515,-0.00000459,-0.00000506,0.00000051,-0.00000743,0.00000702,-
 0.00000685,0.00000537,-0.00001599,0.00001347,-0.00003577,-0.00000377,0
 .00000857,0.00001154,0.00007436,-0.00003830,-0.00000719,-0.00006614,-0
 .00004942,-0.00000196,-0.00000002,0.00001241,-0.00002190,0.00001486,-0
 .00000532,-0.00001751,0.00001164,-0.00000323,-0.00001749,-0.00005678,0
 .00003830,0.00000923,-0.00008157,-0.00000356,-0.00000712,0.00002549,0.
 00001349,-0.00001308,0.00001913,-0.00000413,0.00000769,0.00007653,0.00
 005090,-0.00004374,-0.00005409,0.00010357,0.00001306,-0.00001099,0.000
 01349,0.00000820,0.00000935,0.00010361,0.00011007,-0.00075482,-0.00021
 084,-0.00015248,0.00003944,0.00005257,-0.00003630,-0.00312682,0.001953
 46,0.00011553,-0.11036416,0.42748187,-0.00002034,-0.00004496,-0.000002
 71,0.00004616,0.00004146,-0.00037820,0.00001207,0.00004183,0.00001588,
 0.00007893,0.00003948,-0.00035391,-0.00003079,-0.00003350,0.00022951,-
 0.00000982,-0.00007159,0.00022570,0.00000213,0.00005150,-0.00005845,-0
 .00002884,0.00000885,-0.00000129,0.00001912,0.00003738,-0.00015541,0.0
 0002658,-0.00017796,-0.00003766,-0.00001367,0.00022148,0.00032291,-0.0
 0000870,-0.00000060,0.00005286,-0.00005203,-0.00000995,-0.00000559,-0.
 00000276,0.00001138,-0.00002294,0.00006374,-0.00003270,0.00003601,0.00
 003310,0.00000442,-0.00008171,-0.00005436,-0.00000756,0.00007467,0.000
 00580,0.00003836,-0.00005809,0.00000796,0.00003326,-0.00003448,-0.0000
 7168,-0.00007246,0.00003510,0.00008089,-0.00036553,0.00088255,-0.00200
 318,-0.00105471,0.00570021,0.00302901,-0.00654590,-0.00246278,0.000930
 48,0.00042117,-0.00313651,0.00009780,0.00015712,-0.00067334,0.00017021
 ,-0.04168242,-0.01300757,0.00000560,0.00000156,-0.00000988,-0.00000049
 ,0.00000336,0.00000592,-0.00000414,-0.00000240,-0.00000272,-0.00000199
 ,-0.00000513,0.00000315,0.00000566,0.00000201,0.00000074,-0.00000239,0
 .00000244,-0.00001046,0.00001192,0.00001083,-0.00007684,0.00000518,-0.
 00001087,0.00004288,0.00000128,0.00000214,-0.00007421,-0.00000720,-0.0
 0000361,0.00003978,-0.00000297,-0.00000290,0.00002203,0.00000138,-0.00
 000018,-0.00000089,0.00001129,-0.00001183,-0.00000387,0.00001191,0.000
 00094,-0.00000103,0.00000270,0.00000201,0.00000234,0.00000017,-0.00000
 010,-0.00000169,-0.00001106,-0.00000926,0.00000337,0.00000403,-0.00000
 855,0.00000041,0.00000115,-0.00000287,-0.00000364,0.00014124,0.0000780
 2,-0.00064206,-0.00022081,0.00014129,0.00020709,-0.00004546,-0.0000279
 6,0.00027073,0.00005334,0.00500748,-0.00172559,-0.00226815,0.04382572,
 0.01484968\\-0.00000087,0.00000087,-0.00000057,0.00000033,-0.00000333,
 -0.00000104,-0.00000003,0.00000109,-0.00000183,-0.00000118,0.00000085,
 -0.00000117,0.00000197,-0.00000118,-0.00000057,-0.00000134,0.00000085,
 -0.00000072,-0.00000002,-0.00000123,-0.00000099,0.00000203,0.00000079,
 0.00000203,0.00000207,0.00000071,0.00000094,0.00000072,-0.00000204,0.0
 0000100,0.00000245,-0.00000038,0.00000084,-0.00000033,-0.00000027,0.00
 000122,0.00000033,0.00000028,0.00000117,0.00000059,-0.00000028,0.00000
 068,0.00000006,-0.00000173,0.00000124,-0.00000017,-0.00000038,0.000001
 13,-0.00000099,-0.00000168,0.00000169,-0.00000150,-0.00000012,0.000000
 36,-0.00000042,0.00000064,0.00000059,-0.00000171,0.00000120,-0.0000003
 2,-0.00000204,0.00000081,-0.00000172,-0.00000235,-0.00000005,-0.000001
 55,-0.00000118,0.00000106,-0.00000113,0.00000036,0.00000070,-0.0000008
 0,0.00000076,-0.00000257,-0.00000042,-0.00000006,-0.00000054,-0.000001
 04,0.00000008,0.00000074,-0.00000155,-0.00000038,0.00000082,-0.0000018
 8,-0.00000061,0.00000047,-0.00000105,0.00000046,0.00000090,-0.00000154
 ,0.00000184,0.00000012,-0.00000036,0.00000101,0.00000090,-0.00000094,-
 0.00000015,0.00000240,0.00000034,0.00000053,0.00000083,0.00000006,-0.0
 0000037,-0.00000021,0.,0.00000043,0.00000073,0.00000081,0.00000030,-0.
 00000070,0.00000108,0.00000087,-0.00000022,0.00000108,0.00000102,-0.00
 000037,0.00000105,0.00000043,-0.00000011,0.00000044,0.00000024,-0.0000
 0078,0.00000152,-0.00000060,-0.00000081,0.00000176,-0.00000154,-0.0000
 0070,0.00000126,-0.00000137,-0.00000084,0.00000164,-0.00000112,-0.0000
 0019,0.00000080,0.00000149,0.00000202,-0.00000098,0.00000025,0.0000006
 7,-0.00000017,-0.00000080,0.00000005,0.,0.00000035,0.00000072,-0.00000
 152,0.00000018,-0.00000052,-0.00000087\\\@


 EVERY WORD THAT YOU WRITE IS A BLOW THAT SMITES THE DEVIL.
     -- ST. BERNARD OF CLAIRVAUX
 Job cpu time:       1 days 14 hours 30 minutes 32.3 seconds.
 Elapsed time:       0 days  0 hours 36 minutes 24.2 seconds.
 File lengths (MBytes):  RWF=   4772 Int=      0 D2E=      0 Chk=     76 Scr=      1
 Normal termination of Gaussian 16 at Mon Dec 22 20:01:46 2025.
