 Entering Gaussian System, Link 0=g16
 Initial command:
 /home/users/ntu/xiaogan4/Softwares/g16/l1.exe "/scratch/users/ntu/xiaogan4/g16scratch/Gau-2430099.inp" -scrdir="/scratch/users/ntu/xiaogan4/g16scratch/"
 Entering Link 1 = /home/users/ntu/xiaogan4/Softwares/g16/l1.exe PID=   2430100.
  
 Copyright (c) 1988,1990,1992,1993,1995,1998,2003,2009,2016,
            Gaussian, Inc.  All Rights Reserved.
  
 This is part of the Gaussian(R) 16 program.  It is based on
 the Gaussian(R) 09 system (copyright 2009, Gaussian, Inc.),
 the Gaussian(R) 03 system (copyright 2003, Gaussian, Inc.),
 the Gaussian(R) 98 system (copyright 1998, Gaussian, Inc.),
 the Gaussian(R) 94 system (copyright 1995, Gaussian, Inc.),
 the Gaussian 92(TM) system (copyright 1992, Gaussian, Inc.),
 the Gaussian 90(TM) system (copyright 1990, Gaussian, Inc.),
 the Gaussian 88(TM) system (copyright 1988, Gaussian, Inc.),
 the Gaussian 86(TM) system (copyright 1986, Carnegie Mellon
 University), and the Gaussian 82(TM) system (copyright 1983,
 Carnegie Mellon University). Gaussian is a federally registered
 trademark of Gaussian, Inc.
  
 This software contains proprietary and confidential information,
 including trade secrets, belonging to Gaussian, Inc.
  
 This software is provided under written license and may be
 used, copied, transmitted, or stored only in accord with that
 written license.
  
 The following legend is applicable only to US Government
 contracts under FAR:
  
                    RESTRICTED RIGHTS LEGEND
  
 Use, reproduction and disclosure by the US Government is
 subject to restrictions as set forth in subparagraphs (a)
 and (c) of the Commercial Computer Software - Restricted
 Rights clause in FAR 52.227-19.
  
 Gaussian, Inc.
 340 Quinnipiac St., Bldg. 40, Wallingford CT 06492
  
  
 ---------------------------------------------------------------
 Warning -- This program may not be used in any manner that
 competes with the business of Gaussian, Inc. or will provide
 assistance to any competitor of Gaussian, Inc.  The licensee
 of this program is prohibited from giving any competitor of
 Gaussian, Inc. access to this program.  By using this program,
 the user acknowledges that Gaussian, Inc. is engaged in the
 business of creating and licensing software in the field of
 computational chemistry and represents and warrants to the
 licensee that it is not a competitor of Gaussian, Inc. and that
 it will not use this program in any manner prohibited above.
 ---------------------------------------------------------------
  

 Cite this work as:
 Gaussian 16, Revision A.03,
 M. J. Frisch, G. W. Trucks, H. B. Schlegel, G. E. Scuseria, 
 M. A. Robb, J. R. Cheeseman, G. Scalmani, V. Barone, 
 G. A. Petersson, H. Nakatsuji, X. Li, M. Caricato, A. V. Marenich, 
 J. Bloino, B. G. Janesko, R. Gomperts, B. Mennucci, H. P. Hratchian, 
 J. V. Ortiz, A. F. Izmaylov, J. L. Sonnenberg, D. Williams-Young, 
 F. Ding, F. Lipparini, F. Egidi, J. Goings, B. Peng, A. Petrone, 
 T. Henderson, D. Ranasinghe, V. G. Zakrzewski, J. Gao, N. Rega, 
 G. Zheng, W. Liang, M. Hada, M. Ehara, K. Toyota, R. Fukuda, 
 J. Hasegawa, M. Ishida, T. Nakajima, Y. Honda, O. Kitao, H. Nakai, 
 T. Vreven, K. Throssell, J. A. Montgomery, Jr., J. E. Peralta, 
 F. Ogliaro, M. J. Bearpark, J. J. Heyd, E. N. Brothers, K. N. Kudin, 
 V. N. Staroverov, T. A. Keith, R. Kobayashi, J. Normand, 
 K. Raghavachari, A. P. Rendell, J. C. Burant, S. S. Iyengar, 
 J. Tomasi, M. Cossi, J. M. Millam, M. Klene, C. Adamo, R. Cammi, 
 J. W. Ochterski, R. L. Martin, K. Morokuma, O. Farkas, 
 J. B. Foresman, and D. J. Fox, Gaussian, Inc., Wallingford CT, 2016.
 
 ******************************************
 Gaussian 16:  ES64L-G16RevA.03 25-Dec-2016
                22-Dec-2025 
 ******************************************
 %nprocshared=64
 Will use up to   64 processors via shared memory.
 %mem=128GB
 %oldchk=04C_Si_1_C_C2_CC_N__CC_C2C_C3_C__m062x_def2SVP_ethanol.chk
 %chk=06C_Si_1_C_C2_CC_N__CC_C2C_C3_C__m062x_def2SVP_ethanol.chk
 Copying data from "04C_Si_1_C_C2_CC_N__CC_C2C_C3_C__m062x_def2SVP_ethanol.chk" to current chk file "06C_Si_1_C_C2_CC_N__CC_C2C_C3_C__m062x_def2SVP_ethanol.chk"
 IOpt=  2 FromEx=T IUOpen= 4 IOptOp= 5 NList=   0 IFRang= 0 IUIn= 4 IUOut= 2.
 ----------------------------------------------------------------------
 # m062x/def2SVP TD=(NStates=5, Root=1) SCRF=(SMD, solvent=Ethanol, Cor
 rectedLR) geom=check guess=read
 ----------------------------------------------------------------------
 1/29=2,30=1,38=1,172=1/1;
 2/12=2,40=1/2;
 3/5=43,7=101,11=9,14=-4,25=1,30=1,70=32201,71=1,72=4,74=-55,116=-2/1,2,3,8;
 4/5=1/1;
 5/5=2,38=6,53=4/2;
 8/6=1,10=1,107=1,108=5/1;
 9/8=1,15=1,41=5,42=1,70=2,73=21/14;
 10/5=4,13=10,28=1,74=10/2;
 6/7=2,8=2,9=2,10=2,22=-1/1;
 99/5=1,9=1/99;
 --------------------------
 Step6 ES cLR m062x/def2SVP
 --------------------------
 Structure from the checkpoint file:  "06C_Si_1_C_C2_CC_N__CC_C2C_C3_C__m062x_def2SVP_ethanol.chk"
 Charge =  1 Multiplicity = 1
 Redundant internal coordinates found in file.  (old form).
 C,0,-3.7983168739,1.0772327083,1.1240156405
 Si,0,-2.5601833791,0.9278019486,-0.2766242931
 C,0,-3.3339685781,1.5142776359,-1.8806807042
 C,0,-0.9920191388,1.8823753539,0.1041430374
 C,0,-1.0798178941,3.2511356841,0.2621409397
 C,0,0.057565355,4.0572691892,0.5576265682
 N,0,-0.0506931944,5.3766964284,0.714570991
 C,0,1.3262381012,3.4062258821,0.6808067972
 C,0,1.4273590885,2.0525900776,0.5285780543
 C,0,0.2864778995,1.2172260985,0.2396340158
 C,0,0.4858263219,-0.1978870108,0.0993131293
 C,0,1.8714170244,-0.7197185627,0.3157794996
 C,0,2.7702097379,-0.8150047483,-0.7627144744
 C,0,2.3641270286,-0.3980720571,-2.1519502502
 C,0,4.0519759489,-1.3090431772,-0.4900054243
 C,0,4.4398687065,-1.6969198032,0.7883703309
 C,0,3.5407846218,-1.6043370365,1.8657033997
 N,0,3.891140157,-2.0338452065,3.12852261
 C,0,2.2511631854,-1.1062711963,1.6022525458
 C,0,-0.5325456761,-1.1551153241,-0.2311435868
 C,0,-1.9283982531,-0.8302486359,-0.434562213
 C,0,-2.8324245484,-1.8264321714,-0.7453611832
 C,0,-2.4441227804,-3.1910784372,-0.8793553148
 C,0,-1.0628855226,-3.5159433867,-0.6916789891
 C,0,-0.1580749302,-2.5406622234,-0.3823697851
 N,0,-3.3346176747,-4.1393433192,-1.1708120835
 H,0,-4.12107288,2.1236067906,1.2429502175
 H,0,-4.6931365143,0.470333516,0.913819273
 H,0,-3.3637823358,0.7373418887,2.0760736418
 H,0,-4.2244499142,0.9128970311,-2.1226750849
 H,0,-2.6222926743,1.4335546542,-2.7160188499
 H,0,-3.6515064602,2.5654303341,-1.7943592939
 H,0,-2.042797275,3.7634039246,0.1646853997
 H,0,-0.9511886576,5.8396166423,0.6291487495
 H,0,0.7644480004,5.9461085326,0.9233367628
 H,0,2.2095675224,4.0093076965,0.9004947571
 H,0,2.4096476459,1.5913490278,0.6310967587
 H,0,3.1913224994,-0.5420551756,-2.8602032147
 H,0,2.0690841842,0.6630063468,-2.184031118
 H,0,1.5020711861,-0.9822119809,-2.5119078352
 H,0,4.7720918302,-1.3904548386,-1.308416022
 H,0,5.4485231229,-2.0773079886,0.9649760647
 H,0,3.3466341329,-1.6552412276,3.8964297623
 H,0,4.8856058066,-2.0762708408,3.3254143513
 H,0,1.5341026996,-1.0219356973,2.4233627886
 H,0,-3.8909720061,-1.5911593607,-0.8979125818
 H,0,-0.7462785625,-4.555565357,-0.7972319504
 H,0,0.8848450873,-2.8261003334,-0.2448479325
 H,0,-4.3158009164,-3.9102958931,-1.3023339889
 H,0,-3.0507502543,-5.1102664014,-1.2660499118
 Recover connectivity data from disk.
                           ----------------------------
                           !    Current Parameters    !
                           ! (Angstroms and Degrees)  !
 --------------------------                            --------------------------
 ! Name  Definition              Value                                          !
 --------------------------------------------------------------------------------
 ! R1    R(1,2)                  1.8754                                         !
 ! R2    R(1,27)                 1.1015                                         !
 ! R3    R(1,28)                 1.1015                                         !
 ! R4    R(1,29)                 1.1003                                         !
 ! R5    R(2,3)                  1.875                                          !
 ! R6    R(2,4)                  1.8749                                         !
 ! R7    R(2,21)                 1.8748                                         !
 ! R8    R(3,30)                 1.1014                                         !
 ! R9    R(3,31)                 1.1004                                         !
 ! R10   R(3,32)                 1.1015                                         !
 ! R11   R(4,5)                  1.3806                                         !
 ! R12   R(4,10)                 1.4475                                         !
 ! R13   R(5,6)                  1.4251                                         !
 ! R14   R(5,33)                 1.0951                                         !
 ! R15   R(6,7)                  1.3331                                         !
 ! R16   R(6,8)                  1.4313                                         !
 ! R17   R(7,34)                 1.0161                                         !
 ! R18   R(7,35)                 1.016                                          !
 ! R19   R(8,9)                  1.3659                                         !
 ! R20   R(8,36)                 1.0919                                         !
 ! R21   R(9,10)                 1.4432                                         !
 ! R22   R(9,37)                 1.09                                           !
 ! R23   R(10,11)                1.436                                          !
 ! R24   R(11,12)                1.4963                                         !
 ! R25   R(11,20)                1.4362                                         !
 ! R26   R(12,13)                1.4071                                         !
 ! R27   R(12,19)                1.3959                                         !
 ! R28   R(13,14)                1.5062                                         !
 ! R29   R(13,15)                1.4005                                         !
 ! R30   R(14,38)                1.0985                                         !
 ! R31   R(14,39)                1.1018                                         !
 ! R32   R(14,40)                1.1018                                         !
 ! R33   R(15,16)                1.3911                                         !
 ! R34   R(15,41)                1.0932                                         !
 ! R35   R(16,17)                1.4063                                         !
 ! R36   R(16,42)                1.0924                                         !
 ! R37   R(17,18)                1.3791                                         !
 ! R38   R(17,19)                1.4073                                         !
 ! R39   R(18,43)                1.0146                                         !
 ! R40   R(18,44)                1.0147                                         !
 ! R41   R(19,45)                1.0934                                         !
 ! R42   R(20,21)                1.4475                                         !
 ! R43   R(20,25)                1.4432                                         !
 ! R44   R(21,22)                1.3807                                         !
 ! R45   R(22,23)                1.4251                                         !
 ! R46   R(22,46)                1.0951                                         !
 ! R47   R(23,24)                1.4313                                         !
 ! R48   R(23,26)                1.3331                                         !
 ! R49   R(24,25)                1.3658                                         !
 ! R50   R(24,47)                1.0919                                         !
 ! R51   R(25,48)                1.09                                           !
 ! R52   R(26,49)                1.0161                                         !
 ! R53   R(26,50)                1.016                                          !
 ! A1    A(2,1,27)             110.4747                                         !
 ! A2    A(2,1,28)             110.4821                                         !
 ! A3    A(2,1,29)             111.1538                                         !
 ! A4    A(27,1,28)            107.8179                                         !
 ! A5    A(27,1,29)            108.4053                                         !
 ! A6    A(28,1,29)            108.4054                                         !
 ! A7    A(1,2,3)              109.9712                                         !
 ! A8    A(1,2,4)              111.0967                                         !
 ! A9    A(1,2,21)             111.1073                                         !
 ! A10   A(3,2,4)              111.0788                                         !
 ! A11   A(3,2,21)             111.1191                                         !
 ! A12   A(4,2,21)             102.2794                                         !
 ! A13   A(2,3,30)             110.5374                                         !
 ! A14   A(2,3,31)             111.075                                          !
 ! A15   A(2,3,32)             110.5134                                         !
 ! A16   A(30,3,31)            108.424                                          !
 ! A17   A(30,3,32)            107.7704                                         !
 ! A18   A(31,3,32)            108.4189                                         !
 ! A19   A(2,4,5)              118.3461                                         !
 ! A20   A(2,4,10)             121.5864                                         !
 ! A21   A(5,4,10)             120.0667                                         !
 ! A22   A(4,5,6)              122.2617                                         !
 ! A23   A(4,5,33)             120.63                                           !
 ! A24   A(6,5,33)             117.1082                                         !
 ! A25   A(5,6,7)              121.2964                                         !
 ! A26   A(5,6,8)              117.9038                                         !
 ! A27   A(7,6,8)              120.7998                                         !
 ! A28   A(6,7,34)             120.8616                                         !
 ! A29   A(6,7,35)             120.9118                                         !
 ! A30   A(34,7,35)            118.2266                                         !
 ! A31   A(6,8,9)              120.4514                                         !
 ! A32   A(6,8,36)             118.8919                                         !
 ! A33   A(9,8,36)             120.6566                                         !
 ! A34   A(8,9,10)             122.5068                                         !
 ! A35   A(8,9,37)             118.3969                                         !
 ! A36   A(10,9,37)            119.0963                                         !
 ! A37   A(4,10,9)             116.8056                                         !
 ! A38   A(4,10,11)            124.493                                          !
 ! A39   A(9,10,11)            118.7006                                         !
 ! A40   A(10,11,12)           117.264                                          !
 ! A41   A(10,11,20)           125.5129                                         !
 ! A42   A(12,11,20)           117.2231                                         !
 ! A43   A(11,12,13)           120.2782                                         !
 ! A44   A(11,12,19)           118.8026                                         !
 ! A45   A(13,12,19)           120.9192                                         !
 ! A46   A(12,13,14)           121.0618                                         !
 ! A47   A(12,13,15)           117.3375                                         !
 ! A48   A(14,13,15)           121.6006                                         !
 ! A49   A(13,14,38)           110.8169                                         !
 ! A50   A(13,14,39)           111.4461                                         !
 ! A51   A(13,14,40)           111.4393                                         !
 ! A52   A(38,14,39)           108.0058                                         !
 ! A53   A(38,14,40)           108.0025                                         !
 ! A54   A(39,14,40)           106.9508                                         !
 ! A55   A(13,15,16)           122.175                                          !
 ! A56   A(13,15,41)           118.9073                                         !
 ! A57   A(16,15,41)           118.9176                                         !
 ! A58   A(15,16,17)           120.49                                           !
 ! A59   A(15,16,42)           120.2077                                         !
 ! A60   A(17,16,42)           119.3022                                         !
 ! A61   A(16,17,18)           121.2366                                         !
 ! A62   A(16,17,19)           117.759                                          !
 ! A63   A(18,17,19)           120.9593                                         !
 ! A64   A(17,18,43)           116.1334                                         !
 ! A65   A(17,18,44)           116.0846                                         !
 ! A66   A(43,18,44)           113.2478                                         !
 ! A67   A(12,19,17)           121.319                                          !
 ! A68   A(12,19,45)           119.4933                                         !
 ! A69   A(17,19,45)           119.1878                                         !
 ! A70   A(11,20,21)           124.5085                                         !
 ! A71   A(11,20,25)           118.6861                                         !
 ! A72   A(21,20,25)           116.8045                                         !
 ! A73   A(2,21,20)            121.5725                                         !
 ! A74   A(2,21,22)            118.3533                                         !
 ! A75   A(20,21,22)           120.0732                                         !
 ! A76   A(21,22,23)           122.2532                                         !
 ! A77   A(21,22,46)           120.6162                                         !
 ! A78   A(23,22,46)           117.1304                                         !
 ! A79   A(22,23,24)           117.9015                                         !
 ! A80   A(22,23,26)           121.3114                                         !
 ! A81   A(24,23,26)           120.7871                                         !
 ! A82   A(23,24,25)           120.4586                                         !
 ! A83   A(23,24,47)           118.8987                                         !
 ! A84   A(25,24,47)           120.6425                                         !
 ! A85   A(20,25,24)           122.5044                                         !
 ! A86   A(20,25,48)           119.1081                                         !
 ! A87   A(24,25,48)           118.3875                                         !
 ! A88   A(23,26,49)           120.8629                                         !
 ! A89   A(23,26,50)           120.9043                                         !
 ! A90   A(49,26,50)           118.2328                                         !
 ! D1    D(27,1,2,3)           -59.6297                                         !
 ! D2    D(27,1,2,4)            63.7617                                         !
 ! D3    D(27,1,2,21)          176.9202                                         !
 ! D4    D(28,1,2,3)            59.5886                                         !
 ! D5    D(28,1,2,4)          -177.02                                           !
 ! D6    D(28,1,2,21)          -63.8615                                         !
 ! D7    D(29,1,2,3)           179.982                                          !
 ! D8    D(29,1,2,4)           -56.6267                                         !
 ! D9    D(29,1,2,21)           56.5319                                         !
 ! D10   D(1,2,3,30)           -59.5545                                         !
 ! D11   D(1,2,3,31)          -179.9561                                         !
 ! D12   D(1,2,3,32)            59.6647                                         !
 ! D13   D(4,2,3,30)           177.0437                                         !
 ! D14   D(4,2,3,31)            56.6421                                         !
 ! D15   D(4,2,3,32)           -63.7372                                         !
 ! D16   D(21,2,3,30)           63.8887                                         !
 ! D17   D(21,2,3,31)          -56.5129                                         !
 ! D18   D(21,2,3,32)         -176.8921                                         !
 ! D19   D(1,2,4,5)            -62.6414                                         !
 ! D20   D(1,2,4,10)           117.0381                                         !
 ! D21   D(3,2,4,5)             60.1132                                         !
 ! D22   D(3,2,4,10)          -120.2073                                         !
 ! D23   D(21,2,4,5)           178.7387                                         !
 ! D24   D(21,2,4,10)           -1.5818                                         !
 ! D25   D(1,2,21,20)         -117.0141                                         !
 ! D26   D(1,2,21,22)           62.6102                                         !
 ! D27   D(3,2,21,20)          120.1953                                         !
 ! D28   D(3,2,21,22)          -60.1805                                         !
 ! D29   D(4,2,21,20)            1.5983                                         !
 ! D30   D(4,2,21,22)         -178.7774                                         !
 ! D31   D(2,4,5,6)            179.7687                                         !
 ! D32   D(2,4,5,33)            -0.1268                                         !
 ! D33   D(10,4,5,6)             0.0841                                         !
 ! D34   D(10,4,5,33)         -179.8113                                         !
 ! D35   D(2,4,10,9)           179.7757                                         !
 ! D36   D(2,4,10,11)            0.1187                                         !
 ! D37   D(5,4,10,9)            -0.5502                                         !
 ! D38   D(5,4,10,11)          179.7927                                         !
 ! D39   D(4,5,6,7)           -179.5738                                         !
 ! D40   D(4,5,6,8)              0.4671                                         !
 ! D41   D(33,5,6,7)             0.3252                                         !
 ! D42   D(33,5,6,8)          -179.634                                          !
 ! D43   D(5,6,7,34)             0.1642                                         !
 ! D44   D(5,6,7,35)          -179.8779                                         !
 ! D45   D(8,6,7,34)          -179.8777                                         !
 ! D46   D(8,6,7,35)             0.0801                                         !
 ! D47   D(5,6,8,9)             -0.5369                                         !
 ! D48   D(5,6,8,36)           179.6051                                         !
 ! D49   D(7,6,8,9)            179.5037                                         !
 ! D50   D(7,6,8,36)            -0.3543                                         !
 ! D51   D(6,8,9,10)             0.06                                           !
 ! D52   D(6,8,9,37)          -179.8939                                         !
 ! D53   D(36,8,9,10)          179.9154                                         !
 ! D54   D(36,8,9,37)           -0.0385                                         !
 ! D55   D(8,9,10,4)             0.4848                                         !
 ! D56   D(8,9,10,11)         -179.8374                                         !
 ! D57   D(37,9,10,4)         -179.5616                                         !
 ! D58   D(37,9,10,11)           0.1161                                         !
 ! D59   D(4,10,11,12)        -178.0974                                         !
 ! D60   D(4,10,11,20)           1.8932                                         !
 ! D61   D(9,10,11,12)           2.2515                                         !
 ! D62   D(9,10,11,20)        -177.7579                                         !
 ! D63   D(10,11,12,13)        -89.9502                                         !
 ! D64   D(10,11,12,19)         89.9924                                         !
 ! D65   D(20,11,12,13)         90.0584                                         !
 ! D66   D(20,11,12,19)        -89.999                                          !
 ! D67   D(10,11,20,21)         -1.8737                                         !
 ! D68   D(10,11,20,25)        177.7796                                         !
 ! D69   D(12,11,20,21)        178.1169                                         !
 ! D70   D(12,11,20,25)         -2.2298                                         !
 ! D71   D(11,12,13,14)         -0.0223                                         !
 ! D72   D(11,12,13,15)        179.8652                                         !
 ! D73   D(19,12,13,14)       -179.9637                                         !
 ! D74   D(19,12,13,15)         -0.0761                                         !
 ! D75   D(11,12,19,17)        179.9966                                         !
 ! D76   D(11,12,19,45)          0.0298                                         !
 ! D77   D(13,12,19,17)         -0.0612                                         !
 ! D78   D(13,12,19,45)        179.972                                          !
 ! D79   D(12,13,14,38)        179.9812                                         !
 ! D80   D(12,13,14,39)         59.6727                                         !
 ! D81   D(12,13,14,40)        -59.7192                                         !
 ! D82   D(15,13,14,38)          0.0984                                         !
 ! D83   D(15,13,14,39)       -120.21                                           !
 ! D84   D(15,13,14,40)        120.3981                                         !
 ! D85   D(12,13,15,16)          0.0832                                         !
 ! D86   D(12,13,15,41)       -179.7792                                         !
 ! D87   D(14,13,15,16)        179.9702                                         !
 ! D88   D(14,13,15,41)          0.1078                                         !
 ! D89   D(13,15,16,17)          0.0475                                         !
 ! D90   D(13,15,16,42)       -179.9543                                         !
 ! D91   D(41,15,16,17)        179.9099                                         !
 ! D92   D(41,15,16,42)         -0.092                                          !
 ! D93   D(15,16,17,18)        177.398                                          !
 ! D94   D(15,16,17,19)         -0.1816                                         !
 ! D95   D(42,16,17,18)         -2.6002                                         !
 ! D96   D(42,16,17,19)        179.8203                                         !
 ! D97   D(16,17,18,43)        159.5089                                         !
 ! D98   D(16,17,18,44)         22.6476                                         !
 ! D99   D(19,17,18,43)        -22.9889                                         !
 ! D100  D(19,17,18,44)       -159.8502                                         !
 ! D101  D(16,17,19,12)          0.1892                                         !
 ! D102  D(16,17,19,45)       -179.8439                                         !
 ! D103  D(18,17,19,12)       -177.3974                                         !
 ! D104  D(18,17,19,45)          2.5695                                         !
 ! D105  D(11,20,21,2)          -0.1546                                         !
 ! D106  D(11,20,21,22)       -179.7725                                         !
 ! D107  D(25,20,21,2)        -179.8138                                         !
 ! D108  D(25,20,21,22)          0.5683                                         !
 ! D109  D(11,20,25,24)        179.8119                                         !
 ! D110  D(11,20,25,48)         -0.1298                                         !
 ! D111  D(21,20,25,24)         -0.5082                                         !
 ! D112  D(21,20,25,48)        179.5501                                         !
 ! D113  D(2,21,22,23)        -179.6987                                         !
 ! D114  D(2,21,22,46)           0.1711                                         !
 ! D115  D(20,21,22,23)         -0.0686                                         !
 ! D116  D(20,21,22,46)        179.8012                                         !
 ! D117  D(21,22,23,24)         -0.5109                                         !
 ! D118  D(21,22,23,26)        179.5216                                         !
 ! D119  D(46,22,23,24)        179.615                                          !
 ! D120  D(46,22,23,26)         -0.3525                                         !
 ! D121  D(22,23,24,25)          0.5751                                         !
 ! D122  D(22,23,24,47)       -179.5898                                         !
 ! D123  D(26,23,24,25)       -179.4572                                         !
 ! D124  D(26,23,24,47)          0.3779                                         !
 ! D125  D(22,23,26,49)         -0.1648                                         !
 ! D126  D(22,23,26,50)        179.9229                                         !
 ! D127  D(24,23,26,49)        179.8686                                         !
 ! D128  D(24,23,26,50)         -0.0436                                         !
 ! D129  D(23,24,25,20)         -0.065                                          !
 ! D130  D(23,24,25,48)        179.8771                                         !
 ! D131  D(47,24,25,20)       -179.8972                                         !
 ! D132  D(47,24,25,48)          0.0449                                         !
 --------------------------------------------------------------------------------
                          Input orientation:                          
 ---------------------------------------------------------------------
 Center     Atomic      Atomic             Coordinates (Angstroms)
 Number     Number       Type             X           Y           Z
 ---------------------------------------------------------------------
      1          6           0       -3.798317    1.077233    1.124016
      2         14           0       -2.560183    0.927802   -0.276624
      3          6           0       -3.333969    1.514278   -1.880681
      4          6           0       -0.992019    1.882375    0.104143
      5          6           0       -1.079818    3.251136    0.262141
      6          6           0        0.057565    4.057269    0.557627
      7          7           0       -0.050693    5.376696    0.714571
      8          6           0        1.326238    3.406226    0.680807
      9          6           0        1.427359    2.052590    0.528578
     10          6           0        0.286478    1.217226    0.239634
     11          6           0        0.485826   -0.197887    0.099313
     12          6           0        1.871417   -0.719719    0.315779
     13          6           0        2.770210   -0.815005   -0.762714
     14          6           0        2.364127   -0.398072   -2.151950
     15          6           0        4.051976   -1.309043   -0.490005
     16          6           0        4.439869   -1.696920    0.788370
     17          6           0        3.540785   -1.604337    1.865703
     18          7           0        3.891140   -2.033845    3.128523
     19          6           0        2.251163   -1.106271    1.602253
     20          6           0       -0.532546   -1.155115   -0.231144
     21          6           0       -1.928398   -0.830249   -0.434562
     22          6           0       -2.832425   -1.826432   -0.745361
     23          6           0       -2.444123   -3.191078   -0.879355
     24          6           0       -1.062886   -3.515943   -0.691679
     25          6           0       -0.158075   -2.540662   -0.382370
     26          7           0       -3.334618   -4.139343   -1.170812
     27          1           0       -4.121073    2.123607    1.242950
     28          1           0       -4.693137    0.470334    0.913819
     29          1           0       -3.363782    0.737342    2.076074
     30          1           0       -4.224450    0.912897   -2.122675
     31          1           0       -2.622293    1.433555   -2.716019
     32          1           0       -3.651506    2.565430   -1.794359
     33          1           0       -2.042797    3.763404    0.164685
     34          1           0       -0.951189    5.839617    0.629149
     35          1           0        0.764448    5.946109    0.923337
     36          1           0        2.209568    4.009308    0.900495
     37          1           0        2.409648    1.591349    0.631097
     38          1           0        3.191322   -0.542055   -2.860203
     39          1           0        2.069084    0.663006   -2.184031
     40          1           0        1.502071   -0.982212   -2.511908
     41          1           0        4.772092   -1.390455   -1.308416
     42          1           0        5.448523   -2.077308    0.964976
     43          1           0        3.346634   -1.655241    3.896430
     44          1           0        4.885606   -2.076271    3.325414
     45          1           0        1.534103   -1.021936    2.423363
     46          1           0       -3.890972   -1.591159   -0.897913
     47          1           0       -0.746279   -4.555565   -0.797232
     48          1           0        0.884845   -2.826100   -0.244848
     49          1           0       -4.315801   -3.910296   -1.302334
     50          1           0       -3.050750   -5.110266   -1.266050
 ---------------------------------------------------------------------
                    Distance matrix (angstroms):
                    1          2          3          4          5
     1  C    0.000000
     2  Si   1.875392   0.000000
     3  C    3.071616   1.875018   0.000000
     4  C    3.092524   1.874922   3.091884   0.000000
     5  C    3.585933   2.807068   3.562240   1.380644   0.000000
     6  C    4.906041   4.164390   4.890261   2.457120   1.425063
     7  N    5.718192   5.203141   5.695042   3.670013   2.404537
     8  C    5.646389   4.707816   5.644308   2.833545   2.447129
     9  C    5.349164   4.220663   5.363259   2.462216   2.791673
    10  C    4.181779   2.907537   4.206139   1.447528   2.450318
    11  C    4.585829   3.269049   4.630628   2.551772   3.791242
    12  C    6.002346   4.764908   6.075460   3.874913   4.947762
    13  C    7.091252   5.629098   6.628454   4.709742   5.692674
    14  C    7.133316   5.433564   6.016557   4.642641   5.568241
    15  C    8.362205   6.983528   8.028530   5.998337   6.906248
    16  C    8.699212   7.551431   8.824294   6.541019   7.431495
    17  C    7.848779   6.944286   8.427537   5.983859   6.891806
    18  N    8.533733   7.873116   9.480690   6.951899   7.801128
    19  C    6.449233   5.551278   7.084617   4.657743   5.646090
    20  C    4.181518   2.907220   4.206495   3.090288   4.467425
    21  C    3.092611   1.874790   3.092522   2.919818   4.226486
    22  C    3.585915   2.807069   3.563824   4.226583   5.465198
    23  C    4.905692   4.164364   4.892326   5.368036   6.683297
    24  C    5.645936   4.707552   5.645765   5.457124   6.833990
    25  C    5.348806   4.220373   5.364119   4.527187   5.899994
    26  N    5.717859   5.203391   5.698012   6.585922   7.858540
    27  H    1.101461   2.485042   3.278397   3.338570   3.388590
    28  H    1.101459   2.485140   3.278168   4.043230   4.605824
    29  H    1.100346   2.493438   4.032421   3.290117   3.850455
    30  H    3.278658   2.485540   1.101443   4.043169   4.587311
    31  H    4.031856   2.492045   1.100358   3.288243   3.814743
    32  H    3.279207   2.485223   1.101455   3.338225   3.363475
    33  H    3.349280   2.916004   3.302910   2.155474   1.095101
    34  H    5.570577   5.247401   5.539444   3.992124   2.617532
    35  H    6.675706   6.138117   6.655874   4.502242   3.331873
    36  H    6.688924   5.799294   6.685126   3.925325   3.435459
    37  H    6.248689   5.095436   6.269298   3.454521   3.881674
    38  H    8.206775   6.474193   6.911396   5.671469   6.509990
    39  H    6.748418   5.013824   5.478108   4.011603   4.753710
    40  H    6.749472   5.014634   5.478886   4.611949   5.681789
    41  H    9.244356   7.758941   8.629784   6.777294   7.632553
    42  H    9.771411   8.643589   9.906029   7.609252   8.456094
    43  H    8.136524   7.679647   9.383566   6.761663   7.541490
    44  H    9.497434   8.799938  10.370963   7.784211   8.564531
    45  H    5.876182   5.277744   6.975334   4.493895   5.455511
    46  H    3.349193   2.915847   3.304516   4.633949   5.718053
    47  H    6.688389   5.799017   6.686778   6.505378   7.885309
    48  H    6.248344   5.095195   6.270025   5.080763   6.407007
    49  H    5.570494   5.247996   5.542967   6.825009   8.012819
    50  H    6.675059   6.138232   6.659021   7.417064   8.725422
                    6          7          8          9         10
     6  C    0.000000
     7  N    1.333132   0.000000
     8  C    1.431280   2.404129   0.000000
     9  C    2.428151   3.642652   1.365917   0.000000
    10  C    2.866943   4.200053   2.463220   1.443236   0.000000
    11  C    4.301141   5.634037   3.746206   2.476974   1.435958
    12  C    5.115482   6.404672   4.177784   2.815700   2.503914
    13  C    5.730689   6.962545   4.689093   3.419618   3.362081
    14  C    5.701938   6.884494   4.855348   3.750801   3.556050
    15  C    6.771274   7.936121   5.570836   4.384827   4.592754
    16  C    7.236609   8.378940   5.978993   4.816797   5.103334
    17  C    6.774782   7.934649   5.604814   4.430303   4.603893
    18  N    7.642478   8.733919   6.493413   5.434048   5.648781
    19  C    5.706598   6.936526   4.697572   3.436544   3.333970
    20  C    5.304653   6.617486   5.009248   3.835072   2.553514
    21  C    5.368084   6.585776   5.457511   4.527638   3.090691
    22  C    6.683394   7.858403   6.834409   5.900465   4.467843
    23  C    7.801404   9.037470   7.757200   6.668336   5.304853
    24  C    7.756915   9.059863   7.450373   6.220845   5.009094
    25  C    6.668043   7.993709   6.220853   4.943824   3.834872
    26  N    9.037636  10.241769   9.060225   7.994022   6.617743
    27  H    4.655076   5.237344   5.624439   5.594682   4.610279
    28  H    5.963401   6.757542   6.701241   6.333436   5.080249
    29  H    5.003321   5.861217   5.573688   5.203812   4.114268
    30  H    5.950357   6.737634   6.699727   6.345943   5.101136
    31  H    4.978180   5.824984   5.569628   5.225925   4.152545
    32  H    4.638387   5.211891   5.622395   5.608379   4.632764
    33  H    2.156915   2.621749   3.427004   3.886037   3.451690
    34  H    2.049259   1.016112   3.333276   4.473162   4.801045
    35  H    2.049669   1.016006   2.612553   3.969228   4.801899
    36  H    2.179673   2.648225   1.091898   2.139840   3.454089
    37  H    3.408585   4.515429   2.114243   1.090020   2.191132
    38  H    6.531139   7.636838   5.621941   4.618180   4.598063
    39  H    4.804572   5.925726   4.035390   3.114643   3.059248
    40  H    6.074949   7.297737   5.429800   4.296529   3.726416
    41  H    7.442216   8.552547   6.232099   5.139683   5.414535
    42  H    8.176882   9.266405   6.866085   5.780680   6.166586
    43  H    7.389070   8.432924   6.327771   5.364145   5.566667
    44  H    8.281965   9.312909   7.051299   6.068711   6.443690
    45  H    5.608873   6.809849   4.763226   3.613075   3.367356
    46  H    7.043741   8.117811   7.394964   6.602759   5.160633
    47  H    8.755725  10.070711   8.358830   7.081680   5.955401
    48  H    6.979193   8.311534   6.316134   4.969319   4.115976
    49  H    9.277278  10.416683   9.449706   8.478923   7.060462
    50  H    9.850438  11.086009   9.771331   8.636010   7.310358
                   11         12         13         14         15
    11  C    0.000000
    12  C    1.496338   0.000000
    13  C    2.518399   1.407145   0.000000
    14  C    2.938754   2.536909   1.506224   0.000000
    15  C    3.781453   2.398214   1.400489   2.537866   0.000000
    16  C    4.284431   2.788406   2.443645   3.826381   1.391098
    17  C    3.798816   2.443686   2.850511   4.356735   2.428555
    18  N    4.913554   3.703746   4.228922   5.735060   3.693907
    19  C    2.490061   1.395938   2.438712   3.822087   2.767957
    20  C    1.436165   2.503544   3.362504   3.557151   4.594403
    21  C    2.552133   3.874768   4.710078   4.643487   5.999766
    22  C    3.791625   4.947420   5.693224   5.569816   6.908536
    23  C    4.301347   5.114670   5.731369   5.704353   6.774433
    24  C    3.746155   4.176599   4.689641   4.857770   5.574306
    25  C    2.476938   2.814620   3.420147   3.752814   4.387824
    26  N    5.634189   6.403638   6.963238   6.887339   7.939513
    27  H    5.284010   6.697319   7.755508   7.742224   9.032439
    28  H    5.285035   6.698301   7.756571   7.743258   9.034041
    29  H    4.427383   5.712178   6.935010   7.209320   8.109619
    30  H    5.325202   6.765433   7.332148   6.717800   8.723638
    31  H    4.499789   5.832822   6.160398   5.342042   7.551347
    32  H    5.323480   6.763695   7.330080   6.715509   8.721039
    33  H    4.700004   5.953343   6.707230   6.488888   7.956419
    34  H    6.228739   7.147740   7.750489   7.591745   8.797017
    35  H    6.205266   6.784376   7.251103   7.229453   8.089660
    36  H    4.616672   4.777021   5.133671   5.363423   5.797656
    37  H    2.680531   2.393773   2.804149   3.421289   3.516587
    38  H    4.024537   3.443919   2.156686   1.098456   2.635684
    39  H    2.908866   2.863574   2.167080   1.101802   3.269643
    40  H    2.909707   2.863762   2.166982   1.101785   3.270615
    41  H    4.666475   3.391432   2.153245   2.737639   1.093156
    42  H    5.376798   3.880746   3.428073   4.695590   2.158135
    43  H    4.972544   3.984034   4.769265   6.255293   4.456251
    44  H    5.770105   4.470287   4.772682   6.259052   3.980076
    45  H    2.679393   2.155696   3.423722   4.691656   3.861325
    46  H    4.700216   5.952948   6.707610   6.490172   7.958417
    47  H    4.616409   4.775442   5.134070   5.366063   5.801512
    48  H    2.680516   2.392587   2.804869   3.423541   3.520267
    49  H    6.229143   7.147009   7.751359   7.594669   8.800346
    50  H    6.205084   6.782833   7.251634   7.232599   8.093223
                   16         17         18         19         20
    16  C    0.000000
    17  C    1.406261   0.000000
    18  N    2.427125   1.379108   0.000000
    19  C    2.408672   1.407338   2.424751   0.000000
    20  C    5.104691   4.603323   5.623924   3.333581   0.000000
    21  C    6.542286   5.983510   6.929015   4.657632   1.447523
    22  C    7.433395   6.890920   7.762494   5.645599   2.450414
    23  C    7.239003   6.772903   7.585370   5.705305   2.866959
    24  C    5.981613   5.602519   6.429069   4.695909   2.463100
    25  C    4.819089   4.428555   5.383249   3.435205   1.443204
    26  N    8.381317   7.932077   8.667697   6.934721   4.200024
    27  H    9.385776   8.543386   9.221461   7.153083   5.079419
    28  H    9.387466   8.544460   9.212254   7.154224   4.611241
    29  H    8.275311   7.293885   7.837157   5.928830   4.113459
    30  H    9.505564   9.085290  10.105502   7.738585   4.635162
    31  H    8.482614   8.258601   9.413094   6.989188   4.152452
    32  H    9.503077   9.083615  10.113339   7.736916   5.100394
    33  H    8.498769   7.929848   8.809316   6.649694   5.160365
    34  H    9.267590   8.781762   9.575303   7.710211   7.059861
    35  H    8.481911   8.099712   8.849786   7.239289   7.310431
    36  H    6.127630   5.849511   6.656688   5.163656   5.955758
    37  H    3.867718   3.607788   4.644781   2.871483   4.116191
    38  H    4.025502   4.856414   6.211282   4.595188   4.599456
    39  H    4.474935   4.868994   6.230259   4.183233   3.726636
    40  H    4.475857   4.868970   6.215146   4.183640   3.061282
    41  H    2.144949   3.411290   4.569076   3.861066   5.418033
    42  H    1.092368   2.162054   2.666133   3.401785   6.168819
    43  H    3.294986   2.040621   1.014647   2.600899   5.686389
    44  H    2.603686   2.040103   1.014657   3.294006   6.546296
    45  H    3.401805   2.162625   2.660232   1.093394   3.366775
    46  H    8.500450   7.928982   8.773222   6.649193   3.451629
    47  H    6.130425   5.846356   6.578470   5.161377   3.453867
    48  H    3.870501   3.605710   4.587495   2.869916   2.191204
    49  H    9.269942   8.779513   9.513540   7.708709   4.801197
    50  H    8.484159   8.096157   8.773054   7.236672   4.801625
                   21         22         23         24         25
    21  C    0.000000
    22  C    1.380667   0.000000
    23  C    2.457098   1.425129   0.000000
    24  C    2.833404   2.447161   1.431285   0.000000
    25  C    2.462170   2.791780   2.428178   1.365843   0.000000
    26  N    3.670099   2.404738   1.333092   2.403947   3.642505
    27  H    4.043159   4.606170   5.963407   6.700733   6.332647
    28  H    3.339674   3.389729   4.656122   5.625544   5.595801
    29  H    3.289523   3.849126   5.001282   5.571805   5.202482
    30  H    3.340679   3.367292   4.643062   5.626532   5.611697
    31  H    3.288060   3.815123   4.979188   5.570209   5.226154
    32  H    4.043363   4.589090   5.952512   6.700744   6.345862
    33  H    4.633986   5.718213   7.043856   7.394761   6.602477
    34  H    6.824480   8.012280   9.276739   9.448998   8.478282
    35  H    7.417164   8.725505   9.850523   9.771277   8.636041
    36  H    6.505878   7.885834   8.756156   8.359029   7.081919
    37  H    5.081182   6.407432   6.979410   6.316063   4.969289
    38  H    5.672595   6.512120   6.534472   5.625371   4.620882
    39  H    4.611975   5.682593   6.076610   5.431387   4.297640
    40  H    4.013300   4.756180   4.807990   4.038816   3.117657
    41  H    6.780414   7.637786   7.449838   6.240595   5.146560
    42  H    7.611362   8.459450   8.181436   6.871144   5.784806
    43  H    6.874887   7.730220   7.661578   6.629994   5.601346
    44  H    7.881665   8.729354   8.523368   7.320809   6.277104
    45  H    4.493706   5.454776   5.607085   4.761083   3.611389
    46  H    2.155313   1.095056   2.157188   3.427156   3.886111
    47  H    3.925165   3.435530   2.179735   1.091877   2.139609
    48  H    3.454527   3.881745   3.408495   2.114047   1.089986
    49  H    3.992419   2.617845   2.049235   3.333147   4.473133
    50  H    4.502177   3.332019   2.049588   2.612159   3.968794
                   26         27         28         29         30
    26  N    0.000000
    27  H    6.757907   0.000000
    28  H    5.238357   1.780139   0.000000
    29  H    5.858769   1.785865   1.785864   0.000000
    30  H    5.217564   3.578259   3.104163   4.289646   0.000000
    31  H    5.826857   4.289050   4.288579   4.898844   1.786071
    32  H    6.741159   3.104988   3.578918   4.290098   1.779585
    33  H    8.118237   2.858464   4.292996   3.815162   4.256409
    34  H   10.416345   4.922768   6.550757   5.826440   6.523752
    35  H   11.086214   6.211440   7.731069   6.745542   7.713657
    36  H   10.071187   6.614390   7.757051   6.568864   7.753960
    37  H    8.311696   6.580879   7.196259   6.012469   7.214902
    38  H    7.640839   8.798451   8.799595   8.305004   7.593057
    39  H    7.299943   7.224652   7.440526   6.904351   6.298792
    40  H    5.929551   7.440754   7.226762   6.905286   6.044500
    41  H    8.561195   9.896791   9.899061   9.065028   9.322350
    42  H    9.271308  10.454766  10.456881   9.317377  10.584957
    43  H    8.745675   8.779937   8.834701   7.353084  10.007311
    44  H    9.593977  10.153615  10.200651   8.805094  11.027689
    45  H    6.807405   6.577904   6.579065   5.215836   7.587553
    46  H    2.622450   4.293685   2.859299   3.813717   2.807410
    47  H    2.648075   7.756476   6.615515   6.566740   6.615025
    48  H    4.515073   7.195301   6.582011   6.011292   6.603880
    49  H    1.016111   6.551669   4.923782   5.824132   4.893311
    50  H    1.016043   7.731080   6.212275   6.742574   6.195956
                   31         32         33         34         35
    31  H    0.000000
    32  H    1.786023   0.000000
    33  H    3.749996   2.803737   0.000000
    34  H    5.778937   4.887270   2.391233   0.000000
    35  H    6.714020   6.189952   3.635984   1.743931   0.000000
    36  H    6.562054   6.610538   4.322556   3.662518   2.416628
    37  H    6.045536   6.600702   4.975905   5.416918   4.664335
    38  H    6.141819   7.590573   7.421788   8.370287   7.893109
    39  H    4.783908   6.041210   5.660080   6.620674   6.266497
    40  H    4.784137   6.297619   6.500086   7.900764   7.768309
    41  H    8.039484   9.318915   8.670352   9.422528   8.652577
    42  H    9.540123  10.582036   9.532799  10.185617   9.290722
    43  H    9.428320   9.958570   8.504916   9.236845   8.560811
    44  H   10.256039  10.983613   9.596602  10.198004   9.333407
    45  H    7.051120   7.586100   6.387121   7.515103   7.169106
    46  H    3.750194   4.258896   5.763351   8.135765   9.044351
    47  H    6.562829   7.755204   8.474166  10.494587  10.748386
    48  H    6.045772   7.214435   7.222214   8.901098   8.850469
    49  H    5.781281   6.528277   8.136606  10.493428  11.309785
    50  H    6.716218   7.717275   9.044612  11.309283  11.899268
                   36         37         38         39         40
    36  H    0.000000
    37  H    2.441133   0.000000
    38  H    5.985115   4.165526   0.000000
    39  H    4.553215   2.983747   1.780113   0.000000
    40  H    6.087718   4.162378   1.780061   1.770805   0.000000
    41  H    6.372068   4.270130   2.372058   3.505660   3.508289
    42  H    6.895062   4.775488   4.699357   5.370864   5.372377
    43  H    6.508123   4.699010   6.849481   6.631622   6.702400
    44  H    7.076417   5.180845   6.594413   6.766862   6.835174
    45  H    5.299886   3.287560   5.558123   4.934908   4.935534
    46  H    8.474437   7.222468   7.423618   6.500587   5.662218
    47  H    9.218262   7.055817   5.989058   6.089579   4.556758
    48  H    7.056168   4.754594   4.168547   4.163739   2.986713
    49  H   10.495380   8.901568   8.374300   7.903116   6.624529
    50  H   10.748558   8.850241   7.897680   7.770848   6.270660
                   41         42         43         44         45
    41  H    0.000000
    42  H    2.469340   0.000000
    43  H    5.403005   3.631735   0.000000
    44  H    4.685682   2.426633   1.694626   0.000000
    45  H    4.954448   4.308525   2.419974   3.627381   0.000000
    46  H    8.675106   9.535872   8.681749   9.751930   6.386417
    47  H    6.382135   6.900921   6.869809   7.406837   5.297066
    48  H    4.278194   4.780326   4.957973   5.414342   3.285711
    49  H    9.430770  10.190317   9.530232  10.461625   7.512976
    50  H    8.662312   9.295911   8.917114   9.657765   7.165688
                   46         47         48         49         50
    46  H    0.000000
    47  H    4.322839   0.000000
    48  H    4.975942   2.440644   0.000000
    49  H    2.392160   3.662375   5.416685   0.000000
    50  H    3.636703   2.416211   4.663601   1.744018   0.000000
 Stoichiometry    C22H24N3Si(1+)
 Framework group  C1[X(C22H24N3Si)]
 Deg. of freedom   144
 Full point group                 C1      NOp   1
 Largest Abelian subgroup         C1      NOp   1
 Largest concise Abelian subgroup C1      NOp   1
                         Standard orientation:                         
 ---------------------------------------------------------------------
 Center     Atomic      Atomic             Coordinates (Angstroms)
 Number     Number       Type             X           Y           Z
 ---------------------------------------------------------------------
      1          6           0       -3.687889   -0.014076   -1.823017
      2         14           0       -2.761205   -0.009985   -0.192576
      3          6           0       -3.976833   -0.015540    1.234979
      4          6           0       -1.584193   -1.465207   -0.081642
      5          6           0       -2.113853   -2.739993   -0.105254
      6          6           0       -1.296344   -3.904882   -0.030982
      7          7           0       -1.827733   -5.127087   -0.063854
      8          6           0        0.118988   -3.723872    0.081401
      9          6           0        0.656669   -2.468442    0.104277
     10          6           0       -0.152605   -1.276449    0.019660
     11          6           0        0.498973    0.002861    0.047739
     12          6           0        1.993911    0.009438    0.112121
     13          6           0        2.650448    0.011484    1.356714
     14          6           0        1.871858    0.007645    2.646092
     15          6           0        4.050885    0.014770    1.345109
     16          6           0        4.781867    0.017719    0.161551
     17          6           0        4.125790    0.018494   -1.082287
     18          7           0        4.833960    0.074937   -2.264340
     19          6           0        2.718467    0.012249   -1.081049
     20          6           0       -0.162995    1.277044    0.019055
     21          6           0       -1.596036    1.454588   -0.081919
     22          6           0       -2.135736    2.725161   -0.106571
     23          6           0       -1.327165    3.896461   -0.034022
     24          6           0        0.089511    3.726442    0.078658
     25          6           0        0.636962    2.475343    0.102647
     26          7           0       -1.867580    5.114604   -0.068868
     27          1           0       -4.327814   -0.907244   -1.900234
     28          1           0       -4.336435    0.872874   -1.899952
     29          1           0       -2.991947   -0.010571   -2.675315
     30          1           0       -4.629277    0.870745    1.190366
     31          1           0       -3.451647   -0.012437    2.201912
     32          1           0       -4.619742   -0.908814    1.190999
     33          1           0       -3.195223   -2.893499   -0.184760
     34          1           0       -2.832235   -5.256694   -0.145474
     35          1           0       -1.239489   -5.953640   -0.008639
     36          1           0        0.760098   -4.605373    0.146020
     37          1           0        1.738868   -2.369465    0.189085
     38          1           0        2.548996    0.009632    3.511012
     39          1           0        1.223967   -0.880227    2.722817
     40          1           0        1.217400    0.890565    2.723975
     41          1           0        4.587227    0.012727    2.297644
     42          1           0        5.873863    0.019489    0.190001
     43          1           0        4.345448   -0.245920   -3.093747
     44          1           0        5.798548   -0.236984   -2.221864
     45          1           0        2.184413    0.010107   -2.035141
     46          1           0       -3.218286    2.869806   -0.186009
     47          1           0        0.723935    4.612817    0.142236
     48          1           0        1.719895    2.385091    0.187373
     49          1           0       -2.872999    5.236654   -0.150835
     50          1           0       -1.285303    5.945538   -0.015533
 ---------------------------------------------------------------------
 Rotational constants (GHZ):           0.2093638           0.1813563           0.1129135
 Standard basis: def2SVP (5D, 7F)
 There are   514 symmetry adapted cartesian basis functions of A   symmetry.
 There are   488 symmetry adapted basis functions of A   symmetry.
   488 basis functions,   830 primitive gaussians,   514 cartesian basis functions
    95 alpha electrons       95 beta electrons
       nuclear repulsion energy      2410.0321935260 Hartrees.
 NAtoms=   50 NActive=   50 NUniq=   50 SFac= 1.00D+00 NAtFMM=   60 NAOKFM=F Big=F
 Integral buffers will be    131072 words long.
 Regular integral format.
 Two-electron integral symmetry is turned on.
 ------------------------------------------------------------------------------
 Polarizable Continuum Model (PCM)
 =================================
 Model                : PCM.
 Atomic radii         : SMD-Coulomb.
 Polarization charges : Total charges.
 Charge compensation  : None.
 Solution method      : On-the-fly selection.
 Cavity type          : VdW (van der Waals Surface) (Alpha=1.000).
 Cavity algorithm     : GePol (No added spheres)
                        Default sphere list used, NSphG=   50.
                        Lebedev-Laikov grids with approx.  5.0 points / Ang**2.
                        Smoothing algorithm: York/Karplus (Gamma=1.0000).
                        Polarization charges: spherical gaussians, with
                                              point-specific exponents (IZeta= 3).
                        Self-potential: point-specific (ISelfS= 7).
                        Self-field    : sphere-specific E.n sum rule (ISelfD= 2).
 1st derivatives      : Analytical E(r).r(x)/FMM algorithm (CHGder, D1EAlg=3).
                        Cavity 1st derivative terms included.
 Solvent              : Ethanol, Eps=  24.852000 Eps(inf)=   1.852593
 ------------------------------------------------------------------------------
 ------------------------------------------------------------------------------
 Atomic radii for non-electrostatic terms: SMD-CDS.
 ------------------------------------------------------------------------------
 Nuclear repulsion after PCM non-electrostatic terms =     2410.0327410196 Hartrees.
 One-electron integrals computed using PRISM.
   1 Symmetry operations used in ECPInt.
 ECPInt:  NShTT=   26565 NPrTT=   96561 LenC2=   23420 LenP2D=   57318.
 LDataN:  DoStor=T MaxTD1= 4 Len=   56
 NBasis=   488 RedAO= T EigKep=  2.13D-04  NBF=   488
 NBsUse=   488 1.00D-06 EigRej= -1.00D+00 NBFU=   488
 Initial guess from the checkpoint file:  "06C_Si_1_C_C2_CC_N__CC_C2C_C3_C__m062x_def2SVP_ethanol.chk"
 B after Tr=    -0.000000   -0.000000    0.000000
         Rot=    1.000000   -0.000000   -0.000000   -0.000000 Ang=   0.00 deg.
 Requested convergence on RMS density matrix=1.00D-08 within 128 cycles.
 Requested convergence on MAX density matrix=1.00D-06.
 Requested convergence on             energy=1.00D-06.
 No special actions if energy rises.
 Inv3:  Mode=1 IEnd=    40494828.
 Iteration    1 A*A^-1 deviation from unit magnitude is 1.11D-14 for    352.
 Iteration    1 A*A^-1 deviation from orthogonality  is 3.23D-15 for   2271   1452.
 Iteration    1 A^-1*A deviation from unit magnitude is 1.13D-14 for    352.
 Iteration    1 A^-1*A deviation from orthogonality  is 4.41D-15 for   3338    649.
 Error on total polarization charges =  0.04880
 SCF Done:  E(RM062X) =  -1305.19272596     A.U. after    1 cycles
            NFock=  1  Conv=0.32D-08     -V/T= 2.0095
 SMD-CDS (non-electrostatic) energy       (kcal/mol) =       0.34
 (included in total energy above)
 DoSCS=F DFT=T ScalE2(SS,OS)=  1.000000  1.000000
 ExpMin= 7.80D-02 ExpMax= 6.90D+03 ExpMxC= 1.04D+03 IAcc=3 IRadAn=         5 AccDes= 0.00D+00
 HarFok:  IExCor=  205 AccDes= 0.00D+00 IRadAn=         5 IDoV=-2 UseB2=F ITyADJ=14
 ICtDFT= 12500011 ScaDFX=  1.000000  1.000000  1.000000  1.000000
 GSVD:  LWork=       -1140 too small for GESVD, short by        4950 words or        4950 for optimal perf.
 Range of M.O.s used for correlation:    31   488
 NBasis=   488 NAE=    95 NBE=    95 NFC=    30 NFV=     0
 NROrb=    458 NOA=    65 NOB=    65 NVA=   393 NVB=   393

 **** Warning!!: The largest alpha MO coefficient is  0.11304740D+02

 NEqPCM:  Using non-equilibrium solvation (IEInf=1, Eps=  24.8520, EpsInf=   1.8526)
 Inv3:  Mode=1 IEnd=    40494828.
 Iteration    1 A*A^-1 deviation from unit magnitude is 9.55D-15 for    292.
 Iteration    1 A*A^-1 deviation from orthogonality  is 4.08D-15 for   2392    762.
 Iteration    1 A^-1*A deviation from unit magnitude is 9.33D-15 for    527.
 Iteration    1 A^-1*A deviation from orthogonality  is 2.32D-15 for   3646   2915.
 Orbital symmetries:
       Occupied  (A) (A) (A) (A) (A) (A) (A) (A) (A) (A) (A) (A)
                 (A) (A) (A) (A) (A) (A) (A) (A) (A) (A) (A) (A)
                 (A) (A) (A) (A) (A) (A) (A) (A) (A) (A) (A) (A)
                 (A) (A) (A) (A) (A) (A) (A) (A) (A) (A) (A) (A)
                 (A) (A) (A) (A) (A) (A) (A) (A) (A) (A) (A) (A)
                 (A) (A) (A) (A) (A) (A) (A) (A) (A) (A) (A) (A)
                 (A) (A) (A) (A) (A) (A) (A) (A) (A) (A) (A) (A)
                 (A) (A) (A) (A) (A) (A) (A) (A) (A) (A) (A)
       Virtual   (A) (A) (A) (A) (A) (A) (A) (A) (A) (A) (A) (A)
                 (A) (A) (A) (A) (A) (A) (A) (A) (A) (A) (A) (A)
                 (A) (A) (A) (A) (A) (A) (A) (A) (A) (A) (A) (A)
                 (A) (A) (A) (A) (A) (A) (A) (A) (A) (A) (A) (A)
                 (A) (A) (A) (A) (A) (A) (A) (A) (A) (A) (A) (A)
                 (A) (A) (A) (A) (A) (A) (A) (A) (A) (A) (A) (A)
                 (A) (A) (A) (A) (A) (A) (A) (A) (A) (A) (A) (A)
                 (A) (A) (A) (A) (A) (A) (A) (A) (A) (A) (A) (A)
                 (A) (A) (A) (A) (A) (A) (A) (A) (A) (A) (A) (A)
                 (A) (A) (A) (A) (A) (A) (A) (A) (A) (A) (A) (A)
                 (A) (A) (A) (A) (A) (A) (A) (A) (A) (A) (A) (A)
                 (A) (A) (A) (A) (A) (A) (A) (A) (A) (A) (A) (A)
                 (A) (A) (A) (A) (A) (A) (A) (A) (A) (A) (A) (A)
                 (A) (A) (A) (A) (A) (A) (A) (A) (A) (A) (A) (A)
                 (A) (A) (A) (A) (A) (A) (A) (A) (A) (A) (A) (A)
                 (A) (A) (A) (A) (A) (A) (A) (A) (A) (A) (A) (A)
                 (A) (A) (A) (A) (A) (A) (A) (A) (A) (A) (A) (A)
                 (A) (A) (A) (A) (A) (A) (A) (A) (A) (A) (A) (A)
                 (A) (A) (A) (A) (A) (A) (A) (A) (A) (A) (A) (A)
                 (A) (A) (A) (A) (A) (A) (A) (A) (A) (A) (A) (A)
                 (A) (A) (A) (A) (A) (A) (A) (A) (A) (A) (A) (A)
                 (A) (A) (A) (A) (A) (A) (A) (A) (A) (A) (A) (A)
                 (A) (A) (A) (A) (A) (A) (A) (A) (A) (A) (A) (A)
                 (A) (A) (A) (A) (A) (A) (A) (A) (A) (A) (A) (A)
                 (A) (A) (A) (A) (A) (A) (A) (A) (A) (A) (A) (A)
                 (A) (A) (A) (A) (A) (A) (A) (A) (A) (A) (A) (A)
                 (A) (A) (A) (A) (A) (A) (A) (A) (A) (A) (A) (A)
                 (A) (A) (A) (A) (A) (A) (A) (A) (A) (A) (A) (A)
                 (A) (A) (A) (A) (A) (A) (A) (A) (A) (A) (A) (A)
                 (A) (A) (A) (A) (A) (A) (A) (A) (A) (A) (A) (A)
                 (A) (A) (A) (A) (A) (A) (A) (A) (A) (A) (A) (A)
                 (A) (A) (A) (A) (A) (A) (A) (A) (A) (A) (A) (A)
                 (A) (A) (A) (A) (A) (A) (A) (A) (A)
    20 initial guesses have been made.
 Convergence on wavefunction:    0.000001000000000
 Iteration     1 Dimension    20 NMult     0 NNew     20
 CISAX will form    20 AO SS matrices at one time.
 New state      1 was old state      2
 New state      2 was old state      1
 New state      4 was old state      5
 New state      5 was old state      6
 Iteration     2 Dimension    30 NMult    20 NNew     10
 Iteration     3 Dimension    40 NMult    30 NNew     10
 Iteration     4 Dimension    50 NMult    40 NNew     10
 Iteration     5 Dimension    60 NMult    50 NNew     10
 Iteration     6 Dimension    70 NMult    60 NNew     10
 Iteration     7 Dimension    80 NMult    70 NNew     10
 Iteration     8 Dimension    90 NMult    80 NNew     10
 Iteration     9 Dimension   100 NMult    90 NNew     10
 Iteration    10 Dimension   108 NMult   100 NNew      8
 Iteration    11 Dimension   112 NMult   108 NNew      4
 Iteration    12 Dimension   116 NMult   112 NNew      4
 Iteration    13 Dimension   118 NMult   116 NNew      2
 PCM Corrected Linear-Response:
 The state of interest is root number   1
 Excitation energy =    2.5729 eV, Total energy =  -1305.09817333    
 Recompute the excitation energies using the linear response reaction field.
 Convergence on wavefunction:    0.000001000000000
 Iteration     1 Dimension     5 NMult     0 NNew      5
 Iteration     2 Dimension    15 NMult     5 NNew     10
 New state      1 was old state      2
 New state      2 was old state      1
 Iteration     3 Dimension    25 NMult    15 NNew     10
 Iteration     4 Dimension    35 NMult    25 NNew     10
 Iteration     5 Dimension    45 NMult    35 NNew     10
 Iteration     6 Dimension    55 NMult    45 NNew     10
 Iteration     7 Dimension    65 NMult    55 NNew     10
 Iteration     8 Dimension    75 NMult    65 NNew     10
 Iteration     9 Dimension    85 NMult    75 NNew     10
 Iteration    10 Dimension    89 NMult    85 NNew      4
 Iteration    11 Dimension    93 NMult    89 NNew      4
 Iteration    12 Dimension    97 NMult    93 NNew      4
 Iteration    13 Dimension   101 NMult    97 NNew      4
 Iteration    14 Dimension   103 NMult   101 NNew      2
 ***********************************************************************
 Excited states from <AA,BB:AA,BB> singles matrix:
 ***********************************************************************
 
 Ground to excited state transition densities written to RWF  633
 Ground to excited state transition electric dipole moments (Au):
       state          X           Y           Z        Dip. S.      Osc.
         1        -0.0250      3.4102      0.0008     11.6303      0.7125
         2        -0.0130     -1.7163      0.0055      2.9457      0.1885
         3        -0.0096     -0.2112      0.0013      0.0447      0.0041
         4         0.1123      0.0046      0.0281      0.0134      0.0013
         5         0.0144      0.3435      0.0003      0.1182      0.0121
 Ground to excited state transition velocity dipole moments (Au):
       state          X           Y           Z        Dip. S.      Osc.
         1         0.0024     -0.3151     -0.0002      0.0993      0.7202
         2         0.0015      0.1605     -0.0008      0.0258      0.1789
         3         0.0015      0.0250     -0.0002      0.0006      0.0031
         4        -0.0212     -0.0008     -0.0044      0.0005      0.0021
         5        -0.0022     -0.0562     -0.0000      0.0032      0.0137
 Ground to excited state transition magnetic dipole moments (Au):
       state          X           Y           Z
         1         0.0680      0.0026     -0.5294
         2         0.0539      0.0059      0.4856
         3        -0.0461      0.0001      0.3616
         4        -0.0014     -0.0110      0.0068
         5        -0.1505     -0.0004      1.2815
 Ground to excited state transition velocity quadrupole moments (Au):
       state          XX          YY          ZZ          XY          XZ          YZ
         1         0.0004     -0.0002      0.0025      0.8944     -0.0040      0.0253
         2         0.0175     -0.0134      0.0057     -0.4505     -0.0072     -0.0332
         3         0.0103     -0.0155      0.0033     -0.0884     -0.0025      0.0016
         4         0.7046     -1.4798      0.2171      0.0091      0.0425      0.0014
         5        -0.0133      0.0385     -0.0043      0.1998     -0.0001      0.0127
 <0|del|b> * <b|rxdel|0> + <0|del|b> * <b|delr+rdel|0>
 Rotatory Strengths (R) in cgs (10**-40 erg-esu-cm/Gauss)
       state          XX          YY          ZZ    R(velocity)    E-M Angle
         1        -8.2750      1.8625      2.0697     -1.4476       90.19
         2         7.6492     -2.5084     -0.3415      1.5998       89.52
         3         0.0034     -0.4389     -0.3394     -0.2583       90.94
         4        -0.0714      0.0277      0.0834      0.0132       90.00
         5        -0.0469      0.6216      0.8709      0.4819       89.75
 1/2[<0|r|b>*<b|rxdel|0> + (<0|rxdel|b>*<b|r|0>)*]
 Rotatory Strengths (R) in cgs (10**-40 erg-esu-cm/Gauss)
       state          XX          YY          ZZ     R(length)
         1         1.2029     -6.3125      0.2954     -1.6047
         2         0.4944      7.1154     -1.8999      1.9033
         3        -0.3131      0.0098     -0.3391     -0.2142
         4         0.1132      0.0361     -0.1350      0.0048
         5         1.5310      0.0937     -0.3021      0.4409
  1/2[<0|del|b>*<b|r|0> + (<0|r|b>*<b|del|0>)*] (Au)
       state          X           Y           Z        Dip. S.   Osc.(frdel)
         1        -0.0001     -1.0744     -0.0000      1.0745      0.7163
         2        -0.0000     -0.2755     -0.0000      0.2755      0.1837
         3        -0.0000     -0.0053     -0.0000      0.0053      0.0035
         4        -0.0024     -0.0000     -0.0001      0.0025      0.0017
         5        -0.0000     -0.0193     -0.0000      0.0193      0.0129

 Excitation energies and oscillator strengths:
 
 Excited State   1:      Singlet-A      2.5004 eV  495.86 nm  f=0.7125  <S**2>=0.000
      95 -> 96         0.69915
 This state for optimization and/or second-order correction.
 Total Energy, E(TD-HF/TD-DFT) =  -1305.10083838    
 Copying the excited state density for this state as the 1-particle RhoCI density.
 
 Excited State   2:      Singlet-A      2.6121 eV  474.65 nm  f=0.1885  <S**2>=0.000
      94 -> 96         0.69795
 
 Excited State   3:      Singlet-A      3.7389 eV  331.60 nm  f=0.0041  <S**2>=0.000
      89 -> 96         0.13533
      93 -> 96         0.68089
 
 Excited State   4:      Singlet-A      4.0578 eV  305.55 nm  f=0.0013  <S**2>=0.000
      91 -> 96         0.55857
      92 -> 96        -0.40324
 
 Excited State   5:      Singlet-A      4.1918 eV  295.78 nm  f=0.0121  <S**2>=0.000
      90 -> 96         0.65653
      94 -> 97         0.10298
      95 -> 97        -0.19498
 SavETr:  write IOETrn=   770 NScale= 10 NData=  16 NLR=1 NState=    5 LETran=     100.
 NEqPCM:  Using equilibrium solvation (IEInf=0, Eps=  24.8520, EpsInf=   1.8526)
          Differentiating once with respect to electric field.
                with respect to dipole field.
          Electric field/nuclear overlap derivatives assumed to be zero.
          There are     1 degrees of freedom in the 1st order CPHF.  IDoFFX=0 NUNeed=     1.
 LinEq1:  Iter=  0 NonCon=     1 RMS=2.99D-03 Max=3.89D-01 NDo=     1
 AX will form     1 AO Fock derivatives at one time.
 LinEq1:  Iter=  1 NonCon=     1 RMS=1.51D-03 Max=1.49D-01 NDo=     1
 LinEq1:  Iter=  2 NonCon=     1 RMS=7.98D-04 Max=6.01D-02 NDo=     1
 LinEq1:  Iter=  3 NonCon=     1 RMS=2.34D-04 Max=1.10D-02 NDo=     1
 LinEq1:  Iter=  4 NonCon=     1 RMS=1.29D-04 Max=6.14D-03 NDo=     1
 LinEq1:  Iter=  5 NonCon=     1 RMS=4.56D-05 Max=1.89D-03 NDo=     1
 LinEq1:  Iter=  6 NonCon=     1 RMS=2.54D-05 Max=1.44D-03 NDo=     1
 LinEq1:  Iter=  7 NonCon=     1 RMS=1.06D-05 Max=4.71D-04 NDo=     1
 LinEq1:  Iter=  8 NonCon=     1 RMS=5.07D-06 Max=3.88D-04 NDo=     1
 LinEq1:  Iter=  9 NonCon=     1 RMS=2.29D-06 Max=1.25D-04 NDo=     1
 LinEq1:  Iter= 10 NonCon=     1 RMS=8.40D-07 Max=4.86D-05 NDo=     1
 LinEq1:  Iter= 11 NonCon=     1 RMS=4.51D-07 Max=1.96D-05 NDo=     1
 LinEq1:  Iter= 12 NonCon=     1 RMS=1.87D-07 Max=1.09D-05 NDo=     1
 LinEq1:  Iter= 13 NonCon=     1 RMS=8.16D-08 Max=4.51D-06 NDo=     1
 LinEq1:  Iter= 14 NonCon=     1 RMS=3.97D-08 Max=2.61D-06 NDo=     1
 LinEq1:  Iter= 15 NonCon=     1 RMS=1.53D-08 Max=1.30D-06 NDo=     1
 LinEq1:  Iter= 16 NonCon=     1 RMS=7.01D-09 Max=4.75D-07 NDo=     1
 LinEq1:  Iter= 17 NonCon=     1 RMS=3.36D-09 Max=1.74D-07 NDo=     1
 LinEq1:  Iter= 18 NonCon=     1 RMS=1.27D-09 Max=4.84D-08 NDo=     1
 LinEq1:  Iter= 19 NonCon=     1 RMS=6.47D-10 Max=2.61D-08 NDo=     1
 LinEq1:  Iter= 20 NonCon=     1 RMS=2.28D-10 Max=9.07D-09 NDo=     1
 LinEq1:  Iter= 21 NonCon=     1 RMS=1.08D-10 Max=3.09D-09 NDo=     1
 LinEq1:  Iter= 22 NonCon=     1 RMS=4.38D-11 Max=2.13D-09 NDo=     1
 LinEq1:  Iter= 23 NonCon=     0 RMS=1.98D-11 Max=9.48D-10 NDo=     1
 Linear equations converged to 1.000D-10 1.000D-09 after    23 iterations.
 PCM Corrected Linear-Response - Non-equilibrium solvation:
 Corrected transition energy               =    2.5578          eV
 Total energy after correction             = -1305.09872762     a.u.
 End of Minotr F.D. properties file   721 does not exist.
 End of Minotr F.D. properties file   722 does not exist.
 End of Minotr F.D. properties file   788 does not exist.

 **********************************************************************

            Population analysis using the CI density.

 **********************************************************************

 Orbital symmetries:
       Occupied  (A) (A) (A) (A) (A) (A) (A) (A) (A) (A) (A) (A)
                 (A) (A) (A) (A) (A) (A) (A) (A) (A) (A) (A) (A)
                 (A) (A) (A) (A) (A) (A) (A) (A) (A) (A) (A) (A)
                 (A) (A) (A) (A) (A) (A) (A) (A) (A) (A) (A) (A)
                 (A) (A) (A) (A) (A) (A) (A) (A) (A) (A) (A) (A)
                 (A) (A) (A) (A) (A) (A) (A) (A) (A) (A) (A) (A)
                 (A) (A) (A) (A) (A) (A) (A) (A) (A) (A) (A) (A)
                 (A) (A) (A) (A) (A) (A) (A) (A) (A) (A) (A)
       Virtual   (A) (A) (A) (A) (A) (A) (A) (A) (A) (A) (A) (A)
                 (A) (A) (A) (A) (A) (A) (A) (A) (A) (A) (A) (A)
                 (A) (A) (A) (A) (A) (A) (A) (A) (A) (A) (A) (A)
                 (A) (A) (A) (A) (A) (A) (A) (A) (A) (A) (A) (A)
                 (A) (A) (A) (A) (A) (A) (A) (A) (A) (A) (A) (A)
                 (A) (A) (A) (A) (A) (A) (A) (A) (A) (A) (A) (A)
                 (A) (A) (A) (A) (A) (A) (A) (A) (A) (A) (A) (A)
                 (A) (A) (A) (A) (A) (A) (A) (A) (A) (A) (A) (A)
                 (A) (A) (A) (A) (A) (A) (A) (A) (A) (A) (A) (A)
                 (A) (A) (A) (A) (A) (A) (A) (A) (A) (A) (A) (A)
                 (A) (A) (A) (A) (A) (A) (A) (A) (A) (A) (A) (A)
                 (A) (A) (A) (A) (A) (A) (A) (A) (A) (A) (A) (A)
                 (A) (A) (A) (A) (A) (A) (A) (A) (A) (A) (A) (A)
                 (A) (A) (A) (A) (A) (A) (A) (A) (A) (A) (A) (A)
                 (A) (A) (A) (A) (A) (A) (A) (A) (A) (A) (A) (A)
                 (A) (A) (A) (A) (A) (A) (A) (A) (A) (A) (A) (A)
                 (A) (A) (A) (A) (A) (A) (A) (A) (A) (A) (A) (A)
                 (A) (A) (A) (A) (A) (A) (A) (A) (A) (A) (A) (A)
                 (A) (A) (A) (A) (A) (A) (A) (A) (A) (A) (A) (A)
                 (A) (A) (A) (A) (A) (A) (A) (A) (A) (A) (A) (A)
                 (A) (A) (A) (A) (A) (A) (A) (A) (A) (A) (A) (A)
                 (A) (A) (A) (A) (A) (A) (A) (A) (A) (A) (A) (A)
                 (A) (A) (A) (A) (A) (A) (A) (A) (A) (A) (A) (A)
                 (A) (A) (A) (A) (A) (A) (A) (A) (A) (A) (A) (A)
                 (A) (A) (A) (A) (A) (A) (A) (A) (A) (A) (A) (A)
                 (A) (A) (A) (A) (A) (A) (A) (A) (A) (A) (A) (A)
                 (A) (A) (A) (A) (A) (A) (A) (A) (A) (A) (A) (A)
                 (A) (A) (A) (A) (A) (A) (A) (A) (A) (A) (A) (A)
                 (A) (A) (A) (A) (A) (A) (A) (A) (A) (A) (A) (A)
                 (A) (A) (A) (A) (A) (A) (A) (A) (A) (A) (A) (A)
                 (A) (A) (A) (A) (A) (A) (A) (A) (A) (A) (A) (A)
                 (A) (A) (A) (A) (A) (A) (A) (A) (A) (A) (A) (A)
                 (A) (A) (A) (A) (A) (A) (A) (A) (A)
 The electronic state is 1-A.
 Alpha  occ. eigenvalues --  -67.01568 -14.79767 -14.79761 -14.75689 -10.63465
 Alpha  occ. eigenvalues --  -10.63456 -10.62157 -10.59817 -10.58109 -10.58103
 Alpha  occ. eigenvalues --  -10.58018 -10.57998 -10.57269 -10.57117 -10.57111
 Alpha  occ. eigenvalues --  -10.56863 -10.56857 -10.56651 -10.56633 -10.55922
 Alpha  occ. eigenvalues --  -10.55685 -10.55542 -10.55043 -10.54584 -10.53311
 Alpha  occ. eigenvalues --  -10.53306  -5.55213  -3.86529  -3.86436  -3.86409
 Alpha  occ. eigenvalues --   -1.05080  -1.05061  -1.01396  -0.97862  -0.94430
 Alpha  occ. eigenvalues --   -0.94005  -0.89109  -0.85879  -0.84998  -0.84337
 Alpha  occ. eigenvalues --   -0.82954  -0.82316  -0.78996  -0.76465  -0.75937
 Alpha  occ. eigenvalues --   -0.74730  -0.71811  -0.70657  -0.69736  -0.69119
 Alpha  occ. eigenvalues --   -0.66670  -0.64204  -0.62480  -0.61966  -0.61376
 Alpha  occ. eigenvalues --   -0.59849  -0.58696  -0.58192  -0.57339  -0.54150
 Alpha  occ. eigenvalues --   -0.53331  -0.52146  -0.51556  -0.51291  -0.51016
 Alpha  occ. eigenvalues --   -0.50770  -0.49448  -0.49048  -0.48624  -0.48599
 Alpha  occ. eigenvalues --   -0.47968  -0.47514  -0.47392  -0.46817  -0.45722
 Alpha  occ. eigenvalues --   -0.45465  -0.45402  -0.45046  -0.44273  -0.43647
 Alpha  occ. eigenvalues --   -0.43512  -0.43132  -0.41188  -0.39592  -0.39538
 Alpha  occ. eigenvalues --   -0.37574  -0.37081  -0.36318  -0.35579  -0.33211
 Alpha  occ. eigenvalues --   -0.32487  -0.31196  -0.30937  -0.25417  -0.24991
 Alpha virt. eigenvalues --   -0.09430  -0.00184   0.00868   0.01884   0.02435
 Alpha virt. eigenvalues --    0.04330   0.07993   0.08543   0.10410   0.10709
 Alpha virt. eigenvalues --    0.10813   0.11190   0.11397   0.11963   0.12949
 Alpha virt. eigenvalues --    0.13156   0.13459   0.13649   0.14399   0.15044
 Alpha virt. eigenvalues --    0.15474   0.16249   0.16832   0.17260   0.17509
 Alpha virt. eigenvalues --    0.17613   0.18200   0.19005   0.19278   0.19993
 Alpha virt. eigenvalues --    0.20124   0.21104   0.21676   0.21826   0.22444
 Alpha virt. eigenvalues --    0.23027   0.24033   0.24508   0.25715   0.27035
 Alpha virt. eigenvalues --    0.27771   0.28410   0.28840   0.29180   0.30045
 Alpha virt. eigenvalues --    0.30942   0.31724   0.32881   0.33433   0.34112
 Alpha virt. eigenvalues --    0.34598   0.34631   0.34907   0.35902   0.36618
 Alpha virt. eigenvalues --    0.37901   0.38414   0.38689   0.40535   0.41571
 Alpha virt. eigenvalues --    0.41693   0.42480   0.43049   0.43572   0.44107
 Alpha virt. eigenvalues --    0.44262   0.44891   0.45568   0.45782   0.46673
 Alpha virt. eigenvalues --    0.47932   0.48651   0.49433   0.49684   0.50771
 Alpha virt. eigenvalues --    0.50939   0.51223   0.51392   0.52149   0.52704
 Alpha virt. eigenvalues --    0.52903   0.53402   0.54152   0.54509   0.56238
 Alpha virt. eigenvalues --    0.56848   0.57687   0.57778   0.58108   0.58618
 Alpha virt. eigenvalues --    0.59443   0.59996   0.61205   0.61451   0.61852
 Alpha virt. eigenvalues --    0.62372   0.63084   0.63527   0.64392   0.64594
 Alpha virt. eigenvalues --    0.64968   0.65488   0.66331   0.66750   0.67618
 Alpha virt. eigenvalues --    0.68060   0.68509   0.69090   0.69570   0.70079
 Alpha virt. eigenvalues --    0.70652   0.70693   0.71360   0.71539   0.71953
 Alpha virt. eigenvalues --    0.72212   0.72297   0.73005   0.73306   0.73666
 Alpha virt. eigenvalues --    0.74112   0.74161   0.74639   0.75118   0.75811
 Alpha virt. eigenvalues --    0.76004   0.76219   0.77196   0.77259   0.77802
 Alpha virt. eigenvalues --    0.77986   0.78324   0.79144   0.79584   0.80066
 Alpha virt. eigenvalues --    0.80121   0.80727   0.80915   0.81032   0.81805
 Alpha virt. eigenvalues --    0.82766   0.82966   0.83495   0.83924   0.84940
[...]
    50  H    0.000456   0.365043   0.000000  -0.000000  -0.000000  -0.000000
              31         32         33         34         35         36
     1  C    0.003280  -0.001485  -0.001699   0.000001  -0.000000   0.000000
     2  Si  -0.009459  -0.015125   0.002433  -0.000097   0.000029   0.000028
     3  C    0.368393   0.372399  -0.001701   0.000001  -0.000000  -0.000000
     4  C   -0.001527  -0.003105  -0.078397   0.000426  -0.000467  -0.002309
     5  C    0.000169   0.002245   0.458547  -0.029446   0.012894   0.014690
     6  C   -0.000026  -0.000130  -0.073923   0.002991   0.002271  -0.077773
     7  N    0.000000  -0.000002  -0.008863   0.367322   0.365063  -0.010391
     8  C   -0.000003   0.000005   0.014142   0.011857  -0.027072   0.461027
     9  C    0.000003  -0.000005  -0.002224  -0.000450   0.000454  -0.058634
    10  C    0.000411  -0.000185   0.014952  -0.000005  -0.000035   0.015445
    11  C   -0.000159  -0.000018  -0.000303  -0.000000  -0.000001  -0.000307
    12  C   -0.000005   0.000000   0.000006   0.000000  -0.000000   0.000055
    13  C    0.000001   0.000000   0.000000  -0.000000   0.000000   0.000019
    14  C    0.000000   0.000000   0.000000  -0.000000  -0.000000   0.000003
    15  C    0.000000  -0.000000   0.000000  -0.000000   0.000000  -0.000001
    16  C   -0.000000  -0.000000   0.000000   0.000000  -0.000000  -0.000001
    17  C    0.000000   0.000000   0.000000   0.000000   0.000000  -0.000001
    18  N   -0.000000   0.000000  -0.000000  -0.000000   0.000000   0.000000
    19  C   -0.000000  -0.000000   0.000000  -0.000000  -0.000000   0.000017
    20  C    0.000410  -0.000041   0.000055  -0.000000   0.000000   0.000005
    21  C   -0.001538   0.003240   0.000299   0.000000  -0.000000   0.000000
    22  C    0.000168  -0.000039  -0.000017  -0.000000   0.000000   0.000000
    23  C   -0.000025   0.000012   0.000000   0.000000  -0.000000   0.000000
    24  C   -0.000003  -0.000000  -0.000000   0.000000   0.000000  -0.000000
    25  C    0.000003   0.000003   0.000001  -0.000000  -0.000000  -0.000000
    26  N    0.000000  -0.000000  -0.000000  -0.000000   0.000000   0.000000
    27  H   -0.000104   0.000888   0.000788  -0.000000  -0.000000  -0.000000
    28  H   -0.000104  -0.000136  -0.000125  -0.000000   0.000000   0.000000
    29  H   -0.000088  -0.000101  -0.000033   0.000000  -0.000000  -0.000000
    30  H   -0.013625  -0.012260  -0.000136  -0.000000   0.000000   0.000000
    31  H    0.580374  -0.013625  -0.000047   0.000000  -0.000000  -0.000000
    32  H   -0.013625   0.582753   0.000939  -0.000001  -0.000000  -0.000000
    33  H   -0.000047   0.000939   0.622844   0.005893  -0.000445  -0.000182
    34  H    0.000000  -0.000001   0.005893   0.480753  -0.027427  -0.000274
    35  H   -0.000000  -0.000000  -0.000445  -0.027427   0.481843   0.004565
    36  H   -0.000000  -0.000000  -0.000182  -0.000274   0.004565   0.622611
    37  H    0.000000   0.000000   0.000019   0.000010  -0.000023  -0.013395
    38  H   -0.000000  -0.000000  -0.000000   0.000000   0.000000  -0.000000
    39  H    0.000010   0.000000  -0.000001   0.000000  -0.000000  -0.000005
    40  H    0.000010  -0.000000   0.000000   0.000000   0.000000   0.000000
    41  H    0.000000   0.000000  -0.000000  -0.000000   0.000000   0.000000
    42  H    0.000000   0.000000  -0.000000   0.000000  -0.000000   0.000000
    43  H   -0.000000  -0.000000   0.000000  -0.000000   0.000000   0.000000
    44  H    0.000000   0.000000   0.000000   0.000000  -0.000000   0.000000
    45  H   -0.000000   0.000000  -0.000000   0.000000  -0.000000   0.000001
    46  H   -0.000046  -0.000135  -0.000002  -0.000000   0.000000   0.000000
    47  H   -0.000000   0.000000   0.000000   0.000000  -0.000000  -0.000000
    48  H    0.000000  -0.000000  -0.000000  -0.000000   0.000000  -0.000000
    49  H    0.000000  -0.000000  -0.000000  -0.000000   0.000000   0.000000
    50  H   -0.000000   0.000000   0.000000   0.000000  -0.000000  -0.000000
              37         38         39         40         41         42
     1  C    0.000001  -0.000000   0.000000   0.000000   0.000000   0.000000
     2  Si  -0.000250  -0.000008   0.000134   0.000131   0.000000  -0.000000
     3  C    0.000001   0.000000  -0.000009  -0.000009  -0.000000  -0.000000
     4  C    0.014257   0.000011  -0.000393   0.000081  -0.000000   0.000000
     5  C   -0.002441  -0.000000  -0.000018  -0.000003   0.000000  -0.000000
     6  C    0.015791   0.000001   0.000003  -0.000003  -0.000000  -0.000000
     7  N   -0.000080   0.000000  -0.000000   0.000000   0.000000   0.000000
     8  C   -0.072116  -0.000007   0.000359   0.000007  -0.000001  -0.000000
     9  C    0.458520  -0.000048   0.005002   0.000132  -0.000005  -0.000001
    10  C   -0.053591   0.000094  -0.001925  -0.000724  -0.000004   0.000001
    11  C   -0.036884  -0.000162   0.009474   0.009441  -0.000234   0.000019
    12  C    0.010269   0.012880  -0.018965  -0.018621   0.018483  -0.002628
    13  C   -0.001765  -0.015878   0.000660   0.000530  -0.073152   0.016386
    14  C   -0.000513   0.388282   0.372440   0.372246  -0.016546  -0.000236
    15  C    0.000277  -0.013360   0.003686   0.003850   0.463059  -0.066198
    16  C    0.001002   0.000530  -0.000454  -0.000502  -0.073183   0.464759
    17  C    0.000328  -0.000042   0.000072   0.000104   0.016076  -0.080279
    18  N   -0.000040  -0.000000  -0.000000  -0.000000  -0.000086  -0.010741
    19  C   -0.000098  -0.000298  -0.000335  -0.000407  -0.002803   0.016969
    20  C    0.000548   0.000094  -0.000716  -0.001909  -0.000004  -0.000000
    21  C   -0.000033   0.000011   0.000080  -0.000388  -0.000000   0.000000
    22  C   -0.000001  -0.000000  -0.000004  -0.000018   0.000000   0.000000
    23  C   -0.000000   0.000001  -0.000003   0.000002  -0.000000  -0.000000
    24  C    0.000000  -0.000007   0.000007   0.000358  -0.000001  -0.000000
    25  C   -0.000009  -0.000046   0.000138   0.004947  -0.000005   0.000000
    26  N   -0.000000   0.000000   0.000000  -0.000000   0.000000  -0.000000
    27  H    0.000000   0.000000  -0.000000  -0.000000  -0.000000   0.000000
    28  H   -0.000000   0.000000  -0.000000  -0.000000  -0.000000   0.000000
    29  H    0.000000   0.000000  -0.000000  -0.000000   0.000000  -0.000000
    30  H   -0.000000  -0.000000  -0.000000   0.000000   0.000000   0.000000
    31  H    0.000000  -0.000000   0.000010   0.000010   0.000000   0.000000
    32  H    0.000000  -0.000000   0.000000  -0.000000   0.000000   0.000000
    33  H    0.000019  -0.000000  -0.000001   0.000000  -0.000000  -0.000000
    34  H    0.000010   0.000000   0.000000   0.000000  -0.000000   0.000000
    35  H   -0.000023   0.000000  -0.000000   0.000000   0.000000  -0.000000
    36  H   -0.013395  -0.000000  -0.000005   0.000000   0.000000   0.000000
    37  H    0.624987   0.000019  -0.000209   0.000054  -0.000009  -0.000009
    38  H    0.000019   0.607244  -0.019627  -0.019607   0.006358  -0.000004
    39  H   -0.000209  -0.019627   0.612767  -0.018637   0.000356   0.000007
    40  H    0.000054  -0.019607  -0.018637   0.612715   0.000353   0.000005
    41  H   -0.000009   0.006358   0.000356   0.000353   0.634667  -0.011981
    42  H   -0.000009  -0.000004   0.000007   0.000005  -0.011981   0.636034
    43  H   -0.000006   0.000000  -0.000000   0.000000   0.000010  -0.000284
    44  H   -0.000003  -0.000000  -0.000000   0.000000  -0.000016   0.004690
    45  H   -0.000105   0.000006  -0.000005  -0.000009   0.000011  -0.000179
    46  H   -0.000000  -0.000000   0.000000  -0.000001  -0.000000  -0.000000
    47  H   -0.000000  -0.000000   0.000000  -0.000005   0.000000   0.000000
    48  H    0.000017   0.000019   0.000057  -0.000228  -0.000009  -0.000011
    49  H   -0.000000   0.000000   0.000000   0.000000  -0.000000   0.000000
    50  H    0.000000   0.000000   0.000000  -0.000000   0.000000  -0.000000
              43         44         45         46         47         48
     1  C   -0.000000   0.000000  -0.000002  -0.001698   0.000000   0.000001
     2  Si   0.000000  -0.000000   0.000069   0.002404   0.000028  -0.000250
     3  C    0.000000  -0.000000   0.000000  -0.001689  -0.000000   0.000001
     4  C   -0.000000   0.000000  -0.000284   0.000299   0.000000  -0.000032
     5  C    0.000000   0.000000   0.000004  -0.000017   0.000000  -0.000001
     6  C    0.000000  -0.000000  -0.000004   0.000000   0.000000  -0.000000
     7  N   -0.000000  -0.000000  -0.000000  -0.000000   0.000000  -0.000000
     8  C    0.000000   0.000000   0.000000  -0.000000  -0.000000   0.000000
     9  C    0.000004   0.000000   0.000752   0.000001  -0.000000  -0.000010
    10  C   -0.000013  -0.000001   0.000252   0.000055   0.000005   0.000559
    11  C   -0.000011   0.000015  -0.007415  -0.000302  -0.000309  -0.036810
    12  C    0.000633  -0.000509  -0.075780   0.000006   0.000055   0.010334
    13  C   -0.000045   0.000004   0.016885   0.000000   0.000018  -0.001702
    14  C   -0.000001  -0.000001  -0.000152   0.000000   0.000003  -0.000516
    15  C   -0.000414   0.000428  -0.003272   0.000000  -0.000001   0.000288
    16  C    0.010033  -0.022036   0.017225   0.000000  -0.000001   0.000949
    17  C   -0.003622  -0.003582  -0.076352   0.000000  -0.000001   0.000424
    18  N    0.366980   0.364386  -0.010649  -0.000000   0.000000  -0.000046
    19  C   -0.023755   0.010896   0.471122   0.000000   0.000018  -0.000450
    20  C    0.000005   0.000000  -0.000263   0.014962   0.015454  -0.053590
    21  C   -0.000000   0.000000  -0.000306  -0.078416  -0.002308   0.014220
    22  C   -0.000000  -0.000000   0.000006   0.458609   0.014675  -0.002434
    23  C    0.000000  -0.000000  -0.000004  -0.073930  -0.077861   0.015778
    24  C   -0.000000  -0.000000   0.000018   0.014135   0.461021  -0.071877
    25  C    0.000001  -0.000000   0.000782  -0.002227  -0.058477   0.458588
    26  N    0.000000   0.000000  -0.000000  -0.008853  -0.010391  -0.000080
    27  H    0.000000  -0.000000  -0.000000  -0.000125   0.000000  -0.000000
    28  H    0.000000  -0.000000  -0.000000   0.000784  -0.000000   0.000000
    29  H    0.000000  -0.000000   0.000003  -0.000032  -0.000000   0.000000
    30  H   -0.000000   0.000000   0.000000   0.000929  -0.000000   0.000000
    31  H   -0.000000   0.000000  -0.000000  -0.000046  -0.000000   0.000000
    32  H   -0.000000   0.000000   0.000000  -0.000135   0.000000  -0.000000
    33  H    0.000000   0.000000  -0.000000  -0.000002   0.000000  -0.000000
    34  H   -0.000000   0.000000   0.000000  -0.000000   0.000000  -0.000000
    35  H    0.000000  -0.000000  -0.000000   0.000000  -0.000000   0.000000
    36  H    0.000000   0.000000   0.000001   0.000000  -0.000000  -0.000000
    37  H   -0.000006  -0.000003  -0.000105  -0.000000  -0.000000   0.000017
    38  H    0.000000  -0.000000   0.000006  -0.000000  -0.000000   0.000019
    39  H   -0.000000  -0.000000  -0.000005   0.000000   0.000000   0.000057
    40  H    0.000000   0.000000  -0.000009  -0.000001  -0.000005  -0.000228
    41  H    0.000010  -0.000016   0.000011  -0.000000   0.000000  -0.000009
    42  H   -0.000284   0.004690  -0.000179  -0.000000   0.000000  -0.000011
    43  H    0.498016  -0.025084   0.004507  -0.000000  -0.000000   0.000005
    44  H   -0.025084   0.498319  -0.000300   0.000000   0.000000  -0.000000
    45  H    0.004507  -0.000300   0.638653  -0.000000   0.000001  -0.000156
    46  H   -0.000000   0.000000  -0.000000   0.622829  -0.000181   0.000019
    47  H   -0.000000   0.000000   0.000001  -0.000181   0.622342  -0.013391
    48  H    0.000005  -0.000000  -0.000156   0.000019  -0.013391   0.624074
    49  H   -0.000000   0.000000   0.000000   0.005882  -0.000273   0.000010
    50  H   -0.000000  -0.000000  -0.000000  -0.000444   0.004561  -0.000023
              49         50
     1  C    0.000001  -0.000000
     2  Si  -0.000097   0.000029
     3  C    0.000001  -0.000000
     4  C    0.000000  -0.000000
     5  C   -0.000000   0.000000
     6  C    0.000000  -0.000000
     7  N   -0.000000   0.000000
     8  C    0.000000   0.000000
     9  C   -0.000000  -0.000000
    10  C   -0.000000   0.000000
    11  C   -0.000000  -0.000001
    12  C    0.000000  -0.000000
    13  C   -0.000000   0.000000
    14  C   -0.000000  -0.000000
    15  C   -0.000000   0.000000
    16  C    0.000000  -0.000000
    17  C    0.000000   0.000000
    18  N   -0.000000   0.000000
    19  C   -0.000000  -0.000000
    20  C   -0.000005  -0.000035
    21  C    0.000425  -0.000466
    22  C   -0.029425   0.012885
    23  C    0.002988   0.002286
    24  C    0.011853  -0.027070
    25  C   -0.000451   0.000456
    26  N    0.367296   0.365043
    27  H   -0.000000   0.000000
    28  H   -0.000000  -0.000000
    29  H    0.000000  -0.000000
    30  H   -0.000001  -0.000000
    31  H    0.000000  -0.000000
    32  H   -0.000000   0.000000
    33  H   -0.000000   0.000000
    34  H   -0.000000   0.000000
    35  H    0.000000  -0.000000
    36  H    0.000000  -0.000000
    37  H   -0.000000   0.000000
    38  H    0.000000   0.000000
    39  H    0.000000   0.000000
    40  H    0.000000  -0.000000
    41  H   -0.000000   0.000000
    42  H    0.000000  -0.000000
    43  H   -0.000000  -0.000000
    44  H    0.000000  -0.000000
    45  H    0.000000  -0.000000
    46  H    0.005882  -0.000444
    47  H   -0.000273   0.004561
    48  H    0.000010  -0.000023
    49  H    0.480689  -0.027416
    50  H   -0.027416   0.481689
 Mulliken charges:
               1
     1  C   -0.284695
     2  Si   0.476481
     3  C   -0.286929
     4  C   -0.182379
     5  C   -0.078674
     6  C    0.042695
     7  N   -0.059413
     8  C   -0.021971
     9  C   -0.035047
    10  C    0.033613
    11  C   -0.037267
    12  C   -0.147267
    13  C   -0.109687
    14  C    0.080398
    15  C   -0.073077
    16  C   -0.051539
    17  C    0.047836
    18  N   -0.139018
    19  C   -0.041921
    20  C    0.033828
    21  C   -0.182526
    22  C   -0.078277
    23  C    0.042767
    24  C   -0.021630
    25  C   -0.034759
    26  N   -0.059021
    27  H    0.083506
    28  H    0.083573
    29  H    0.086808
    30  H    0.083943
    31  H    0.087150
    32  H    0.083911
    33  H    0.047179
    34  H    0.188446
    35  H    0.188352
    36  H    0.044807
    37  H    0.055481
    38  H    0.053546
    39  H    0.056054
    40  H    0.056102
    41  H    0.038663
    42  H    0.033681
    43  H    0.173039
    44  H    0.172792
    45  H    0.024939
    46  H    0.047185
    47  H    0.045018
    48  H    0.056273
    49  H    0.188523
    50  H    0.188508
 Sum of Mulliken charges =   1.00000
 Mulliken charges with hydrogens summed into heavy atoms:
               1
     1  C   -0.030808
     2  Si   0.476481
     3  C   -0.031925
     4  C   -0.182379
     5  C   -0.031495
     6  C    0.042695
     7  N    0.317384
     8  C    0.022836
     9  C    0.020434
    10  C    0.033613
    11  C   -0.037267
    12  C   -0.147267
    13  C   -0.109687
    14  C    0.246101
    15  C   -0.034414
    16  C   -0.017858
    17  C    0.047836
    18  N    0.206814
    19  C   -0.016982
    20  C    0.033828
    21  C   -0.182526
    22  C   -0.031092
    23  C    0.042767
    24  C    0.023388
    25  C    0.021514
    26  N    0.318010
 Electronic spatial extent (au):  <R**2>=           9820.5172
 Charge=              1.0000 electrons
 Dipole moment (field-independent basis, Debye):
    X=             -2.0398    Y=             -1.0804    Z=             -2.0566  Tot=              3.0915
 Quadrupole moment (field-independent basis, Debye-Ang):
   XX=            -92.8977   YY=            -46.3982   ZZ=           -151.3088
   XY=             -5.9573   XZ=             -7.5064   YZ=              2.9677
 Traceless Quadrupole moment (field-independent basis, Debye-Ang):
   XX=              3.9706   YY=             50.4700   ZZ=            -54.4406
   XY=             -5.9573   XZ=             -7.5064   YZ=              2.9677
 Octapole moment (field-independent basis, Debye-Ang**2):
  XXX=            102.6833  YYY=             -2.2390  ZZZ=            -26.6569  XYY=           -208.6776
  XXY=            -27.9272  XXZ=            -65.0178  XZZ=             62.7511  YZZ=             -8.4588
  YYZ=             -5.7684  XYZ=             15.2941
 Hexadecapole moment (field-independent basis, Debye-Ang**3):
 XXXX=          -5021.0956 YYYY=          -1496.0417 ZZZZ=          -1073.5480 XXXY=           -161.6562
 XXXZ=           -318.3019 YYYX=            -15.0002 YYYZ=              0.1547 ZZZX=           -132.7805
 ZZZY=             25.0453 XXYY=          -1464.1405 XXZZ=          -1090.0801 YYZZ=          -1194.8916
 XXYZ=             76.9472 YYXZ=             32.9484 ZZXY=            -41.7686
 N-N= 2.410032741020D+03 E-N=-7.841114424974D+03  KE= 1.292972079701D+03
 1\1\GINC-X1001C0S4B1N1\SP\RM062X TD-FC\def2SVP\C22H24N3Si1(1+)\XIAOGAN
 4\22-Dec-2025\0\\# m062x/def2SVP TD=(NStates=5, Root=1) SCRF=(SMD, sol
 vent=Ethanol, CorrectedLR) geom=check guess=read\\Step6 ES cLR m062x/d
 ef2SVP\\1,1\C,0,-3.7983168739,1.0772327083,1.1240156405\Si,0,-2.560183
 3791,0.9278019486,-0.2766242931\C,0,-3.3339685781,1.5142776359,-1.8806
 807042\C,0,-0.9920191388,1.8823753539,0.1041430374\C,0,-1.0798178941,3
 .2511356841,0.2621409397\C,0,0.057565355,4.0572691892,0.5576265682\N,0
 ,-0.0506931944,5.3766964284,0.714570991\C,0,1.3262381012,3.4062258821,
 0.6808067972\C,0,1.4273590885,2.0525900776,0.5285780543\C,0,0.28647789
 95,1.2172260985,0.2396340158\C,0,0.4858263219,-0.1978870108,0.09931312
 93\C,0,1.8714170244,-0.7197185627,0.3157794996\C,0,2.7702097379,-0.815
 0047483,-0.7627144744\C,0,2.3641270286,-0.3980720571,-2.1519502502\C,0
 ,4.0519759489,-1.3090431772,-0.4900054243\C,0,4.4398687065,-1.69691980
 32,0.7883703309\C,0,3.5407846218,-1.6043370365,1.8657033997\N,0,3.8911
 40157,-2.0338452065,3.12852261\C,0,2.2511631854,-1.1062711963,1.602252
 5458\C,0,-0.5325456761,-1.1551153241,-0.2311435868\C,0,-1.9283982531,-
 0.8302486359,-0.434562213\C,0,-2.8324245484,-1.8264321714,-0.745361183
 2\C,0,-2.4441227804,-3.1910784372,-0.8793553148\C,0,-1.0628855226,-3.5
 159433867,-0.6916789891\C,0,-0.1580749302,-2.5406622234,-0.3823697851\
 N,0,-3.3346176747,-4.1393433192,-1.1708120835\H,0,-4.12107288,2.123606
 7906,1.2429502175\H,0,-4.6931365143,0.470333516,0.913819273\H,0,-3.363
 7823358,0.7373418887,2.0760736418\H,0,-4.2244499142,0.9128970311,-2.12
 26750849\H,0,-2.6222926743,1.4335546542,-2.7160188499\H,0,-3.651506460
 2,2.5654303341,-1.7943592939\H,0,-2.042797275,3.7634039246,0.164685399
 7\H,0,-0.9511886576,5.8396166423,0.6291487495\H,0,0.7644480004,5.94610
 85326,0.9233367628\H,0,2.2095675224,4.0093076965,0.9004947571\H,0,2.40
 96476459,1.5913490278,0.6310967587\H,0,3.1913224994,-0.5420551756,-2.8
 602032147\H,0,2.0690841842,0.6630063468,-2.184031118\H,0,1.5020711861,
 -0.9822119809,-2.5119078352\H,0,4.7720918302,-1.3904548386,-1.30841602
 2\H,0,5.4485231229,-2.0773079886,0.9649760647\H,0,3.3466341329,-1.6552
 412276,3.8964297623\H,0,4.8856058066,-2.0762708408,3.3254143513\H,0,1.
 5341026996,-1.0219356973,2.4233627886\H,0,-3.8909720061,-1.5911593607,
 -0.8979125818\H,0,-0.7462785625,-4.555565357,-0.7972319504\H,0,0.88484
 50873,-2.8261003334,-0.2448479325\H,0,-4.3158009164,-3.9102958931,-1.3
 023339889\H,0,-3.0507502543,-5.1102664014,-1.2660499118\\Version=ES64L
 -G16RevA.03\State=1-A\HF=-1305.192726\RMSD=3.248e-09\Dipole=-0.7948842
 ,0.5875785,0.7087341\Quadrupole=3.7570436,29.4574476,-33.2144912,11.69
 31748,18.2890704,10.925034\PG=C01 [X(C22H24N3Si1)]\\@


 MOM AND DAD WENT TO ALPHA CENTAURI AND ALL
 I GOT WAS THIS DUMB T-SHIRT.
 Job cpu time:       0 days 14 hours 50 minutes 47.8 seconds.
 Elapsed time:       0 days  0 hours 14 minutes  6.7 seconds.
 File lengths (MBytes):  RWF=   1822 Int=      0 D2E=      0 Chk=     78 Scr=      1
 Normal termination of Gaussian 16 at Mon Dec 22 22:05:43 2025.
