 Entering Gaussian System, Link 0=g16
 Initial command:
 /home/users/ntu/xiaogan4/Softwares/g16/l1.exe "/scratch/users/ntu/xiaogan4/g16scratch/Gau-306075.inp" -scrdir="/scratch/users/ntu/xiaogan4/g16scratch/"
 Entering Link 1 = /home/users/ntu/xiaogan4/Softwares/g16/l1.exe PID=    306076.
  
 Copyright (c) 1988,1990,1992,1993,1995,1998,2003,2009,2016,
            Gaussian, Inc.  All Rights Reserved.
  
 This is part of the Gaussian(R) 16 program.  It is based on
 the Gaussian(R) 09 system (copyright 2009, Gaussian, Inc.),
 the Gaussian(R) 03 system (copyright 2003, Gaussian, Inc.),
 the Gaussian(R) 98 system (copyright 1998, Gaussian, Inc.),
 the Gaussian(R) 94 system (copyright 1995, Gaussian, Inc.),
 the Gaussian 92(TM) system (copyright 1992, Gaussian, Inc.),
 the Gaussian 90(TM) system (copyright 1990, Gaussian, Inc.),
 the Gaussian 88(TM) system (copyright 1988, Gaussian, Inc.),
 the Gaussian 86(TM) system (copyright 1986, Carnegie Mellon
 University), and the Gaussian 82(TM) system (copyright 1983,
 Carnegie Mellon University). Gaussian is a federally registered
 trademark of Gaussian, Inc.
  
 This software contains proprietary and confidential information,
 including trade secrets, belonging to Gaussian, Inc.
  
 This software is provided under written license and may be
 used, copied, transmitted, or stored only in accord with that
 written license.
  
 The following legend is applicable only to US Government
 contracts under FAR:
  
                    RESTRICTED RIGHTS LEGEND
  
 Use, reproduction and disclosure by the US Government is
 subject to restrictions as set forth in subparagraphs (a)
 and (c) of the Commercial Computer Software - Restricted
 Rights clause in FAR 52.227-19.
  
 Gaussian, Inc.
 340 Quinnipiac St., Bldg. 40, Wallingford CT 06492
  
  
 ---------------------------------------------------------------
 Warning -- This program may not be used in any manner that
 competes with the business of Gaussian, Inc. or will provide
 assistance to any competitor of Gaussian, Inc.  The licensee
 of this program is prohibited from giving any competitor of
 Gaussian, Inc. access to this program.  By using this program,
 the user acknowledges that Gaussian, Inc. is engaged in the
 business of creating and licensing software in the field of
 computational chemistry and represents and warrants to the
 licensee that it is not a competitor of Gaussian, Inc. and that
 it will not use this program in any manner prohibited above.
 ---------------------------------------------------------------
  

 Cite this work as:
 Gaussian 16, Revision A.03,
 M. J. Frisch, G. W. Trucks, H. B. Schlegel, G. E. Scuseria, 
 M. A. Robb, J. R. Cheeseman, G. Scalmani, V. Barone, 
 G. A. Petersson, H. Nakatsuji, X. Li, M. Caricato, A. V. Marenich, 
 J. Bloino, B. G. Janesko, R. Gomperts, B. Mennucci, H. P. Hratchian, 
 J. V. Ortiz, A. F. Izmaylov, J. L. Sonnenberg, D. Williams-Young, 
 F. Ding, F. Lipparini, F. Egidi, J. Goings, B. Peng, A. Petrone, 
 T. Henderson, D. Ranasinghe, V. G. Zakrzewski, J. Gao, N. Rega, 
 G. Zheng, W. Liang, M. Hada, M. Ehara, K. Toyota, R. Fukuda, 
 J. Hasegawa, M. Ishida, T. Nakajima, Y. Honda, O. Kitao, H. Nakai, 
 T. Vreven, K. Throssell, J. A. Montgomery, Jr., J. E. Peralta, 
 F. Ogliaro, M. J. Bearpark, J. J. Heyd, E. N. Brothers, K. N. Kudin, 
 V. N. Staroverov, T. A. Keith, R. Kobayashi, J. Normand, 
 K. Raghavachari, A. P. Rendell, J. C. Burant, S. S. Iyengar, 
 J. Tomasi, M. Cossi, J. M. Millam, M. Klene, C. Adamo, R. Cammi, 
 J. W. Ochterski, R. L. Martin, K. Morokuma, O. Farkas, 
 J. B. Foresman, and D. J. Fox, Gaussian, Inc., Wallingford CT, 2016.
 
 ******************************************
 Gaussian 16:  ES64L-G16RevA.03 25-Dec-2016
                25-Dec-2025 
 ******************************************
 %nprocshared=64
 Will use up to   64 processors via shared memory.
 %mem=128GB
 %oldchk=06C_Si_1_C_C2_CC_N__CC_C2C_C3_C__m062x_def2SVP_ethanol.chk
 %chk=07C_Si_1_C_C2_CC_N__CC_C2C_C3_C__m062x_def2SVP_ethanol.chk
 Copying data from "06C_Si_1_C_C2_CC_N__CC_C2C_C3_C__m062x_def2SVP_ethanol.chk" to current chk file "07C_Si_1_C_C2_CC_N__CC_C2C_C3_C__m062x_def2SVP_ethanol.chk"
 IOpt=  2 FromEx=T IUOpen= 4 IOptOp= 5 NList=   0 IFRang= 0 IUIn= 4 IUOut= 2.
 ----------------------------------------------------------------------
 # m062x/def2SVP TD=(NStates=5, Root=1) SCRF=(SMD, solvent=Ethanol) geo
 m=check guess=read
 ----------------------------------------------------------------------
 1/29=2,38=1,172=1/1;
 2/12=2,40=1/2;
 3/5=43,7=101,11=9,14=-4,25=1,30=1,70=32201,72=4,74=-55,116=-2/1,2,3,8;
 4/5=1/1;
 5/5=2,38=6,53=4/2;
 8/6=1,10=1,107=1,108=5/1;
 9/8=1,41=5,42=1,70=2/14;
 6/7=2,8=2,9=2,10=2/1;
 99/5=1,9=1/99;
 ---------------------------------
 Step7 De-excitation m062x/def2SVP
 ---------------------------------
 Structure from the checkpoint file:  "07C_Si_1_C_C2_CC_N__CC_C2C_C3_C__m062x_def2SVP_ethanol.chk"
 Charge =  1 Multiplicity = 1
 Redundant internal coordinates found in file.  (old form).
 C,0,-3.7983168739,1.0772327083,1.1240156405
 Si,0,-2.5601833791,0.9278019486,-0.2766242931
 C,0,-3.3339685781,1.5142776359,-1.8806807042
 C,0,-0.9920191388,1.8823753539,0.1041430374
 C,0,-1.0798178941,3.2511356841,0.2621409397
 C,0,0.057565355,4.0572691892,0.5576265682
 N,0,-0.0506931944,5.3766964284,0.714570991
 C,0,1.3262381012,3.4062258821,0.6808067972
 C,0,1.4273590885,2.0525900776,0.5285780543
 C,0,0.2864778995,1.2172260985,0.2396340158
 C,0,0.4858263219,-0.1978870108,0.0993131293
 C,0,1.8714170244,-0.7197185627,0.3157794996
 C,0,2.7702097379,-0.8150047483,-0.7627144744
 C,0,2.3641270286,-0.3980720571,-2.1519502502
 C,0,4.0519759489,-1.3090431772,-0.4900054243
 C,0,4.4398687065,-1.6969198032,0.7883703309
 C,0,3.5407846218,-1.6043370365,1.8657033997
 N,0,3.891140157,-2.0338452065,3.12852261
 C,0,2.2511631854,-1.1062711963,1.6022525458
 C,0,-0.5325456761,-1.1551153241,-0.2311435868
 C,0,-1.9283982531,-0.8302486359,-0.434562213
 C,0,-2.8324245484,-1.8264321714,-0.7453611832
 C,0,-2.4441227804,-3.1910784372,-0.8793553148
 C,0,-1.0628855226,-3.5159433867,-0.6916789891
 C,0,-0.1580749302,-2.5406622234,-0.3823697851
 N,0,-3.3346176747,-4.1393433192,-1.1708120835
 H,0,-4.12107288,2.1236067906,1.2429502175
 H,0,-4.6931365143,0.470333516,0.913819273
 H,0,-3.3637823358,0.7373418887,2.0760736418
 H,0,-4.2244499142,0.9128970311,-2.1226750849
 H,0,-2.6222926743,1.4335546542,-2.7160188499
 H,0,-3.6515064602,2.5654303341,-1.7943592939
 H,0,-2.042797275,3.7634039246,0.1646853997
 H,0,-0.9511886576,5.8396166423,0.6291487495
 H,0,0.7644480004,5.9461085326,0.9233367628
 H,0,2.2095675224,4.0093076965,0.9004947571
 H,0,2.4096476459,1.5913490278,0.6310967587
 H,0,3.1913224994,-0.5420551756,-2.8602032147
 H,0,2.0690841842,0.6630063468,-2.184031118
 H,0,1.5020711861,-0.9822119809,-2.5119078352
 H,0,4.7720918302,-1.3904548386,-1.308416022
 H,0,5.4485231229,-2.0773079886,0.9649760647
 H,0,3.3466341329,-1.6552412276,3.8964297623
 H,0,4.8856058066,-2.0762708408,3.3254143513
 H,0,1.5341026996,-1.0219356973,2.4233627886
 H,0,-3.8909720061,-1.5911593607,-0.8979125818
 H,0,-0.7462785625,-4.555565357,-0.7972319504
 H,0,0.8848450873,-2.8261003334,-0.2448479325
 H,0,-4.3158009164,-3.9102958931,-1.3023339889
 H,0,-3.0507502543,-5.1102664014,-1.2660499118
 Recover connectivity data from disk.
                           ----------------------------
                           !    Current Parameters    !
                           ! (Angstroms and Degrees)  !
 --------------------------                            --------------------------
 ! Name  Definition              Value                                          !
 --------------------------------------------------------------------------------
 ! R1    R(1,2)                  1.8754                                         !
 ! R2    R(1,27)                 1.1015                                         !
 ! R3    R(1,28)                 1.1015                                         !
 ! R4    R(1,29)                 1.1003                                         !
 ! R5    R(2,3)                  1.875                                          !
 ! R6    R(2,4)                  1.8749                                         !
 ! R7    R(2,21)                 1.8748                                         !
 ! R8    R(3,30)                 1.1014                                         !
 ! R9    R(3,31)                 1.1004                                         !
 ! R10   R(3,32)                 1.1015                                         !
 ! R11   R(4,5)                  1.3806                                         !
 ! R12   R(4,10)                 1.4475                                         !
 ! R13   R(5,6)                  1.4251                                         !
 ! R14   R(5,33)                 1.0951                                         !
 ! R15   R(6,7)                  1.3331                                         !
 ! R16   R(6,8)                  1.4313                                         !
 ! R17   R(7,34)                 1.0161                                         !
 ! R18   R(7,35)                 1.016                                          !
 ! R19   R(8,9)                  1.3659                                         !
 ! R20   R(8,36)                 1.0919                                         !
 ! R21   R(9,10)                 1.4432                                         !
 ! R22   R(9,37)                 1.09                                           !
 ! R23   R(10,11)                1.436                                          !
 ! R24   R(11,12)                1.4963                                         !
 ! R25   R(11,20)                1.4362                                         !
 ! R26   R(12,13)                1.4071                                         !
 ! R27   R(12,19)                1.3959                                         !
 ! R28   R(13,14)                1.5062                                         !
 ! R29   R(13,15)                1.4005                                         !
 ! R30   R(14,38)                1.0985                                         !
 ! R31   R(14,39)                1.1018                                         !
 ! R32   R(14,40)                1.1018                                         !
 ! R33   R(15,16)                1.3911                                         !
 ! R34   R(15,41)                1.0932                                         !
 ! R35   R(16,17)                1.4063                                         !
 ! R36   R(16,42)                1.0924                                         !
 ! R37   R(17,18)                1.3791                                         !
 ! R38   R(17,19)                1.4073                                         !
 ! R39   R(18,43)                1.0146                                         !
 ! R40   R(18,44)                1.0147                                         !
 ! R41   R(19,45)                1.0934                                         !
 ! R42   R(20,21)                1.4475                                         !
 ! R43   R(20,25)                1.4432                                         !
 ! R44   R(21,22)                1.3807                                         !
 ! R45   R(22,23)                1.4251                                         !
 ! R46   R(22,46)                1.0951                                         !
 ! R47   R(23,24)                1.4313                                         !
 ! R48   R(23,26)                1.3331                                         !
 ! R49   R(24,25)                1.3658                                         !
 ! R50   R(24,47)                1.0919                                         !
 ! R51   R(25,48)                1.09                                           !
 ! R52   R(26,49)                1.0161                                         !
 ! R53   R(26,50)                1.016                                          !
 ! A1    A(2,1,27)             110.4747                                         !
 ! A2    A(2,1,28)             110.4821                                         !
 ! A3    A(2,1,29)             111.1538                                         !
 ! A4    A(27,1,28)            107.8179                                         !
 ! A5    A(27,1,29)            108.4053                                         !
 ! A6    A(28,1,29)            108.4054                                         !
 ! A7    A(1,2,3)              109.9712                                         !
 ! A8    A(1,2,4)              111.0967                                         !
 ! A9    A(1,2,21)             111.1073                                         !
 ! A10   A(3,2,4)              111.0788                                         !
 ! A11   A(3,2,21)             111.1191                                         !
 ! A12   A(4,2,21)             102.2794                                         !
 ! A13   A(2,3,30)             110.5374                                         !
 ! A14   A(2,3,31)             111.075                                          !
 ! A15   A(2,3,32)             110.5134                                         !
 ! A16   A(30,3,31)            108.424                                          !
 ! A17   A(30,3,32)            107.7704                                         !
 ! A18   A(31,3,32)            108.4189                                         !
 ! A19   A(2,4,5)              118.3461                                         !
 ! A20   A(2,4,10)             121.5864                                         !
 ! A21   A(5,4,10)             120.0667                                         !
 ! A22   A(4,5,6)              122.2617                                         !
 ! A23   A(4,5,33)             120.63                                           !
 ! A24   A(6,5,33)             117.1082                                         !
 ! A25   A(5,6,7)              121.2964                                         !
 ! A26   A(5,6,8)              117.9038                                         !
 ! A27   A(7,6,8)              120.7998                                         !
 ! A28   A(6,7,34)             120.8616                                         !
 ! A29   A(6,7,35)             120.9118                                         !
 ! A30   A(34,7,35)            118.2266                                         !
 ! A31   A(6,8,9)              120.4514                                         !
 ! A32   A(6,8,36)             118.8919                                         !
 ! A33   A(9,8,36)             120.6566                                         !
 ! A34   A(8,9,10)             122.5068                                         !
 ! A35   A(8,9,37)             118.3969                                         !
 ! A36   A(10,9,37)            119.0963                                         !
 ! A37   A(4,10,9)             116.8056                                         !
 ! A38   A(4,10,11)            124.493                                          !
 ! A39   A(9,10,11)            118.7006                                         !
 ! A40   A(10,11,12)           117.264                                          !
 ! A41   A(10,11,20)           125.5129                                         !
 ! A42   A(12,11,20)           117.2231                                         !
 ! A43   A(11,12,13)           120.2782                                         !
 ! A44   A(11,12,19)           118.8026                                         !
 ! A45   A(13,12,19)           120.9192                                         !
 ! A46   A(12,13,14)           121.0618                                         !
 ! A47   A(12,13,15)           117.3375                                         !
 ! A48   A(14,13,15)           121.6006                                         !
 ! A49   A(13,14,38)           110.8169                                         !
 ! A50   A(13,14,39)           111.4461                                         !
 ! A51   A(13,14,40)           111.4393                                         !
 ! A52   A(38,14,39)           108.0058                                         !
 ! A53   A(38,14,40)           108.0025                                         !
 ! A54   A(39,14,40)           106.9508                                         !
 ! A55   A(13,15,16)           122.175                                          !
 ! A56   A(13,15,41)           118.9073                                         !
 ! A57   A(16,15,41)           118.9176                                         !
 ! A58   A(15,16,17)           120.49                                           !
 ! A59   A(15,16,42)           120.2077                                         !
 ! A60   A(17,16,42)           119.3022                                         !
 ! A61   A(16,17,18)           121.2366                                         !
 ! A62   A(16,17,19)           117.759                                          !
 ! A63   A(18,17,19)           120.9593                                         !
 ! A64   A(17,18,43)           116.1334                                         !
 ! A65   A(17,18,44)           116.0846                                         !
 ! A66   A(43,18,44)           113.2478                                         !
 ! A67   A(12,19,17)           121.319                                          !
 ! A68   A(12,19,45)           119.4933                                         !
 ! A69   A(17,19,45)           119.1878                                         !
 ! A70   A(11,20,21)           124.5085                                         !
 ! A71   A(11,20,25)           118.6861                                         !
 ! A72   A(21,20,25)           116.8045                                         !
 ! A73   A(2,21,20)            121.5725                                         !
 ! A74   A(2,21,22)            118.3533                                         !
 ! A75   A(20,21,22)           120.0732                                         !
 ! A76   A(21,22,23)           122.2532                                         !
 ! A77   A(21,22,46)           120.6162                                         !
 ! A78   A(23,22,46)           117.1304                                         !
 ! A79   A(22,23,24)           117.9015                                         !
 ! A80   A(22,23,26)           121.3114                                         !
 ! A81   A(24,23,26)           120.7871                                         !
 ! A82   A(23,24,25)           120.4586                                         !
 ! A83   A(23,24,47)           118.8987                                         !
 ! A84   A(25,24,47)           120.6425                                         !
 ! A85   A(20,25,24)           122.5044                                         !
 ! A86   A(20,25,48)           119.1081                                         !
 ! A87   A(24,25,48)           118.3875                                         !
 ! A88   A(23,26,49)           120.8629                                         !
 ! A89   A(23,26,50)           120.9043                                         !
 ! A90   A(49,26,50)           118.2328                                         !
 ! D1    D(27,1,2,3)           -59.6297                                         !
 ! D2    D(27,1,2,4)            63.7617                                         !
 ! D3    D(27,1,2,21)          176.9202                                         !
 ! D4    D(28,1,2,3)            59.5886                                         !
 ! D5    D(28,1,2,4)          -177.02                                           !
 ! D6    D(28,1,2,21)          -63.8615                                         !
 ! D7    D(29,1,2,3)           179.982                                          !
 ! D8    D(29,1,2,4)           -56.6267                                         !
 ! D9    D(29,1,2,21)           56.5319                                         !
 ! D10   D(1,2,3,30)           -59.5545                                         !
 ! D11   D(1,2,3,31)          -179.9561                                         !
 ! D12   D(1,2,3,32)            59.6647                                         !
 ! D13   D(4,2,3,30)           177.0437                                         !
 ! D14   D(4,2,3,31)            56.6421                                         !
 ! D15   D(4,2,3,32)           -63.7372                                         !
 ! D16   D(21,2,3,30)           63.8887                                         !
 ! D17   D(21,2,3,31)          -56.5129                                         !
 ! D18   D(21,2,3,32)         -176.8921                                         !
 ! D19   D(1,2,4,5)            -62.6414                                         !
 ! D20   D(1,2,4,10)           117.0381                                         !
 ! D21   D(3,2,4,5)             60.1132                                         !
 ! D22   D(3,2,4,10)          -120.2073                                         !
 ! D23   D(21,2,4,5)           178.7387                                         !
 ! D24   D(21,2,4,10)           -1.5818                                         !
 ! D25   D(1,2,21,20)         -117.0141                                         !
 ! D26   D(1,2,21,22)           62.6102                                         !
 ! D27   D(3,2,21,20)          120.1953                                         !
 ! D28   D(3,2,21,22)          -60.1805                                         !
 ! D29   D(4,2,21,20)            1.5983                                         !
 ! D30   D(4,2,21,22)         -178.7774                                         !
 ! D31   D(2,4,5,6)            179.7687                                         !
 ! D32   D(2,4,5,33)            -0.1268                                         !
 ! D33   D(10,4,5,6)             0.0841                                         !
 ! D34   D(10,4,5,33)         -179.8113                                         !
 ! D35   D(2,4,10,9)           179.7757                                         !
 ! D36   D(2,4,10,11)            0.1187                                         !
 ! D37   D(5,4,10,9)            -0.5502                                         !
 ! D38   D(5,4,10,11)          179.7927                                         !
 ! D39   D(4,5,6,7)           -179.5738                                         !
 ! D40   D(4,5,6,8)              0.4671                                         !
 ! D41   D(33,5,6,7)             0.3252                                         !
 ! D42   D(33,5,6,8)          -179.634                                          !
 ! D43   D(5,6,7,34)             0.1642                                         !
 ! D44   D(5,6,7,35)          -179.8779                                         !
 ! D45   D(8,6,7,34)          -179.8777                                         !
 ! D46   D(8,6,7,35)             0.0801                                         !
 ! D47   D(5,6,8,9)             -0.5369                                         !
 ! D48   D(5,6,8,36)           179.6051                                         !
 ! D49   D(7,6,8,9)            179.5037                                         !
 ! D50   D(7,6,8,36)            -0.3543                                         !
 ! D51   D(6,8,9,10)             0.06                                           !
 ! D52   D(6,8,9,37)          -179.8939                                         !
 ! D53   D(36,8,9,10)          179.9154                                         !
 ! D54   D(36,8,9,37)           -0.0385                                         !
 ! D55   D(8,9,10,4)             0.4848                                         !
 ! D56   D(8,9,10,11)         -179.8374                                         !
 ! D57   D(37,9,10,4)         -179.5616                                         !
 ! D58   D(37,9,10,11)           0.1161                                         !
 ! D59   D(4,10,11,12)        -178.0974                                         !
 ! D60   D(4,10,11,20)           1.8932                                         !
 ! D61   D(9,10,11,12)           2.2515                                         !
 ! D62   D(9,10,11,20)        -177.7579                                         !
 ! D63   D(10,11,12,13)        -89.9502                                         !
 ! D64   D(10,11,12,19)         89.9924                                         !
 ! D65   D(20,11,12,13)         90.0584                                         !
 ! D66   D(20,11,12,19)        -89.999                                          !
 ! D67   D(10,11,20,21)         -1.8737                                         !
 ! D68   D(10,11,20,25)        177.7796                                         !
 ! D69   D(12,11,20,21)        178.1169                                         !
 ! D70   D(12,11,20,25)         -2.2298                                         !
 ! D71   D(11,12,13,14)         -0.0223                                         !
 ! D72   D(11,12,13,15)        179.8652                                         !
 ! D73   D(19,12,13,14)       -179.9637                                         !
 ! D74   D(19,12,13,15)         -0.0761                                         !
 ! D75   D(11,12,19,17)        179.9966                                         !
 ! D76   D(11,12,19,45)          0.0298                                         !
 ! D77   D(13,12,19,17)         -0.0612                                         !
 ! D78   D(13,12,19,45)        179.972                                          !
 ! D79   D(12,13,14,38)        179.9812                                         !
 ! D80   D(12,13,14,39)         59.6727                                         !
 ! D81   D(12,13,14,40)        -59.7192                                         !
 ! D82   D(15,13,14,38)          0.0984                                         !
 ! D83   D(15,13,14,39)       -120.21                                           !
 ! D84   D(15,13,14,40)        120.3981                                         !
 ! D85   D(12,13,15,16)          0.0832                                         !
 ! D86   D(12,13,15,41)       -179.7792                                         !
 ! D87   D(14,13,15,16)        179.9702                                         !
 ! D88   D(14,13,15,41)          0.1078                                         !
 ! D89   D(13,15,16,17)          0.0475                                         !
 ! D90   D(13,15,16,42)       -179.9543                                         !
 ! D91   D(41,15,16,17)        179.9099                                         !
 ! D92   D(41,15,16,42)         -0.092                                          !
 ! D93   D(15,16,17,18)        177.398                                          !
 ! D94   D(15,16,17,19)         -0.1816                                         !
 ! D95   D(42,16,17,18)         -2.6002                                         !
 ! D96   D(42,16,17,19)        179.8203                                         !
 ! D97   D(16,17,18,43)        159.5089                                         !
 ! D98   D(16,17,18,44)         22.6476                                         !
 ! D99   D(19,17,18,43)        -22.9889                                         !
 ! D100  D(19,17,18,44)       -159.8502                                         !
 ! D101  D(16,17,19,12)          0.1892                                         !
 ! D102  D(16,17,19,45)       -179.8439                                         !
 ! D103  D(18,17,19,12)       -177.3974                                         !
 ! D104  D(18,17,19,45)          2.5695                                         !
 ! D105  D(11,20,21,2)          -0.1546                                         !
 ! D106  D(11,20,21,22)       -179.7725                                         !
 ! D107  D(25,20,21,2)        -179.8138                                         !
 ! D108  D(25,20,21,22)          0.5683                                         !
 ! D109  D(11,20,25,24)        179.8119                                         !
 ! D110  D(11,20,25,48)         -0.1298                                         !
 ! D111  D(21,20,25,24)         -0.5082                                         !
 ! D112  D(21,20,25,48)        179.5501                                         !
 ! D113  D(2,21,22,23)        -179.6987                                         !
 ! D114  D(2,21,22,46)           0.1711                                         !
 ! D115  D(20,21,22,23)         -0.0686                                         !
 ! D116  D(20,21,22,46)        179.8012                                         !
 ! D117  D(21,22,23,24)         -0.5109                                         !
 ! D118  D(21,22,23,26)        179.5216                                         !
 ! D119  D(46,22,23,24)        179.615                                          !
 ! D120  D(46,22,23,26)         -0.3525                                         !
 ! D121  D(22,23,24,25)          0.5751                                         !
 ! D122  D(22,23,24,47)       -179.5898                                         !
 ! D123  D(26,23,24,25)       -179.4572                                         !
 ! D124  D(26,23,24,47)          0.3779                                         !
 ! D125  D(22,23,26,49)         -0.1648                                         !
 ! D126  D(22,23,26,50)        179.9229                                         !
 ! D127  D(24,23,26,49)        179.8686                                         !
 ! D128  D(24,23,26,50)         -0.0436                                         !
 ! D129  D(23,24,25,20)         -0.065                                          !
 ! D130  D(23,24,25,48)        179.8771                                         !
 ! D131  D(47,24,25,20)       -179.8972                                         !
 ! D132  D(47,24,25,48)          0.0449                                         !
 --------------------------------------------------------------------------------
                          Input orientation:                          
 ---------------------------------------------------------------------
 Center     Atomic      Atomic             Coordinates (Angstroms)
 Number     Number       Type             X           Y           Z
 ---------------------------------------------------------------------
      1          6           0       -3.798317    1.077233    1.124016
      2         14           0       -2.560183    0.927802   -0.276624
      3          6           0       -3.333969    1.514278   -1.880681
      4          6           0       -0.992019    1.882375    0.104143
      5          6           0       -1.079818    3.251136    0.262141
      6          6           0        0.057565    4.057269    0.557627
      7          7           0       -0.050693    5.376696    0.714571
      8          6           0        1.326238    3.406226    0.680807
      9          6           0        1.427359    2.052590    0.528578
     10          6           0        0.286478    1.217226    0.239634
     11          6           0        0.485826   -0.197887    0.099313
     12          6           0        1.871417   -0.719719    0.315779
     13          6           0        2.770210   -0.815005   -0.762714
     14          6           0        2.364127   -0.398072   -2.151950
     15          6           0        4.051976   -1.309043   -0.490005
     16          6           0        4.439869   -1.696920    0.788370
     17          6           0        3.540785   -1.604337    1.865703
     18          7           0        3.891140   -2.033845    3.128523
     19          6           0        2.251163   -1.106271    1.602253
     20          6           0       -0.532546   -1.155115   -0.231144
     21          6           0       -1.928398   -0.830249   -0.434562
     22          6           0       -2.832425   -1.826432   -0.745361
     23          6           0       -2.444123   -3.191078   -0.879355
     24          6           0       -1.062886   -3.515943   -0.691679
     25          6           0       -0.158075   -2.540662   -0.382370
     26          7           0       -3.334618   -4.139343   -1.170812
     27          1           0       -4.121073    2.123607    1.242950
     28          1           0       -4.693137    0.470334    0.913819
     29          1           0       -3.363782    0.737342    2.076074
     30          1           0       -4.224450    0.912897   -2.122675
     31          1           0       -2.622293    1.433555   -2.716019
     32          1           0       -3.651506    2.565430   -1.794359
     33          1           0       -2.042797    3.763404    0.164685
     34          1           0       -0.951189    5.839617    0.629149
     35          1           0        0.764448    5.946109    0.923337
     36          1           0        2.209568    4.009308    0.900495
     37          1           0        2.409648    1.591349    0.631097
     38          1           0        3.191322   -0.542055   -2.860203
     39          1           0        2.069084    0.663006   -2.184031
     40          1           0        1.502071   -0.982212   -2.511908
     41          1           0        4.772092   -1.390455   -1.308416
     42          1           0        5.448523   -2.077308    0.964976
     43          1           0        3.346634   -1.655241    3.896430
     44          1           0        4.885606   -2.076271    3.325414
     45          1           0        1.534103   -1.021936    2.423363
     46          1           0       -3.890972   -1.591159   -0.897913
     47          1           0       -0.746279   -4.555565   -0.797232
     48          1           0        0.884845   -2.826100   -0.244848
     49          1           0       -4.315801   -3.910296   -1.302334
     50          1           0       -3.050750   -5.110266   -1.266050
 ---------------------------------------------------------------------
                    Distance matrix (angstroms):
                    1          2          3          4          5
     1  C    0.000000
     2  Si   1.875392   0.000000
     3  C    3.071616   1.875018   0.000000
     4  C    3.092524   1.874922   3.091884   0.000000
     5  C    3.585933   2.807068   3.562240   1.380644   0.000000
     6  C    4.906041   4.164390   4.890261   2.457120   1.425063
     7  N    5.718192   5.203141   5.695042   3.670013   2.404537
     8  C    5.646389   4.707816   5.644308   2.833545   2.447129
     9  C    5.349164   4.220663   5.363259   2.462216   2.791673
    10  C    4.181779   2.907537   4.206139   1.447528   2.450318
    11  C    4.585829   3.269049   4.630628   2.551772   3.791242
    12  C    6.002346   4.764908   6.075460   3.874913   4.947762
    13  C    7.091252   5.629098   6.628454   4.709742   5.692674
    14  C    7.133316   5.433564   6.016557   4.642641   5.568241
    15  C    8.362205   6.983528   8.028530   5.998337   6.906248
    16  C    8.699212   7.551431   8.824294   6.541019   7.431495
    17  C    7.848779   6.944286   8.427537   5.983859   6.891806
    18  N    8.533733   7.873116   9.480690   6.951899   7.801128
    19  C    6.449233   5.551278   7.084617   4.657743   5.646090
    20  C    4.181518   2.907220   4.206495   3.090288   4.467425
    21  C    3.092611   1.874790   3.092522   2.919818   4.226486
    22  C    3.585915   2.807069   3.563824   4.226583   5.465198
    23  C    4.905692   4.164364   4.892326   5.368036   6.683297
    24  C    5.645936   4.707552   5.645765   5.457124   6.833990
    25  C    5.348806   4.220373   5.364119   4.527187   5.899994
    26  N    5.717859   5.203391   5.698012   6.585922   7.858540
    27  H    1.101461   2.485042   3.278397   3.338570   3.388590
    28  H    1.101459   2.485140   3.278168   4.043230   4.605824
    29  H    1.100346   2.493438   4.032421   3.290117   3.850455
    30  H    3.278658   2.485540   1.101443   4.043169   4.587311
    31  H    4.031856   2.492045   1.100358   3.288243   3.814743
    32  H    3.279207   2.485223   1.101455   3.338225   3.363475
    33  H    3.349280   2.916004   3.302910   2.155474   1.095101
    34  H    5.570577   5.247401   5.539444   3.992124   2.617532
    35  H    6.675706   6.138117   6.655874   4.502242   3.331873
    36  H    6.688924   5.799294   6.685126   3.925325   3.435459
    37  H    6.248689   5.095436   6.269298   3.454521   3.881674
    38  H    8.206775   6.474193   6.911396   5.671469   6.509990
    39  H    6.748418   5.013824   5.478108   4.011603   4.753710
    40  H    6.749472   5.014634   5.478886   4.611949   5.681789
    41  H    9.244356   7.758941   8.629784   6.777294   7.632553
    42  H    9.771411   8.643589   9.906029   7.609252   8.456094
    43  H    8.136524   7.679647   9.383566   6.761663   7.541490
    44  H    9.497434   8.799938  10.370963   7.784211   8.564531
    45  H    5.876182   5.277744   6.975334   4.493895   5.455511
    46  H    3.349193   2.915847   3.304516   4.633949   5.718053
    47  H    6.688389   5.799017   6.686778   6.505378   7.885309
    48  H    6.248344   5.095195   6.270025   5.080763   6.407007
    49  H    5.570494   5.247996   5.542967   6.825009   8.012819
    50  H    6.675059   6.138232   6.659021   7.417064   8.725422
                    6          7          8          9         10
     6  C    0.000000
     7  N    1.333132   0.000000
     8  C    1.431280   2.404129   0.000000
     9  C    2.428151   3.642652   1.365917   0.000000
    10  C    2.866943   4.200053   2.463220   1.443236   0.000000
    11  C    4.301141   5.634037   3.746206   2.476974   1.435958
    12  C    5.115482   6.404672   4.177784   2.815700   2.503914
    13  C    5.730689   6.962545   4.689093   3.419618   3.362081
    14  C    5.701938   6.884494   4.855348   3.750801   3.556050
    15  C    6.771274   7.936121   5.570836   4.384827   4.592754
    16  C    7.236609   8.378940   5.978993   4.816797   5.103334
    17  C    6.774782   7.934649   5.604814   4.430303   4.603893
    18  N    7.642478   8.733919   6.493413   5.434048   5.648781
    19  C    5.706598   6.936526   4.697572   3.436544   3.333970
    20  C    5.304653   6.617486   5.009248   3.835072   2.553514
    21  C    5.368084   6.585776   5.457511   4.527638   3.090691
    22  C    6.683394   7.858403   6.834409   5.900465   4.467843
    23  C    7.801404   9.037470   7.757200   6.668336   5.304853
    24  C    7.756915   9.059863   7.450373   6.220845   5.009094
    25  C    6.668043   7.993709   6.220853   4.943824   3.834872
    26  N    9.037636  10.241769   9.060225   7.994022   6.617743
    27  H    4.655076   5.237344   5.624439   5.594682   4.610279
    28  H    5.963401   6.757542   6.701241   6.333436   5.080249
    29  H    5.003321   5.861217   5.573688   5.203812   4.114268
    30  H    5.950357   6.737634   6.699727   6.345943   5.101136
    31  H    4.978180   5.824984   5.569628   5.225925   4.152545
    32  H    4.638387   5.211891   5.622395   5.608379   4.632764
    33  H    2.156915   2.621749   3.427004   3.886037   3.451690
    34  H    2.049259   1.016112   3.333276   4.473162   4.801045
    35  H    2.049669   1.016006   2.612553   3.969228   4.801899
    36  H    2.179673   2.648225   1.091898   2.139840   3.454089
    37  H    3.408585   4.515429   2.114243   1.090020   2.191132
    38  H    6.531139   7.636838   5.621941   4.618180   4.598063
    39  H    4.804572   5.925726   4.035390   3.114643   3.059248
    40  H    6.074949   7.297737   5.429800   4.296529   3.726416
    41  H    7.442216   8.552547   6.232099   5.139683   5.414535
    42  H    8.176882   9.266405   6.866085   5.780680   6.166586
    43  H    7.389070   8.432924   6.327771   5.364145   5.566667
    44  H    8.281965   9.312909   7.051299   6.068711   6.443690
    45  H    5.608873   6.809849   4.763226   3.613075   3.367356
    46  H    7.043741   8.117811   7.394964   6.602759   5.160633
    47  H    8.755725  10.070711   8.358830   7.081680   5.955401
    48  H    6.979193   8.311534   6.316134   4.969319   4.115976
    49  H    9.277278  10.416683   9.449706   8.478923   7.060462
    50  H    9.850438  11.086009   9.771331   8.636010   7.310358
                   11         12         13         14         15
    11  C    0.000000
    12  C    1.496338   0.000000
    13  C    2.518399   1.407145   0.000000
    14  C    2.938754   2.536909   1.506224   0.000000
    15  C    3.781453   2.398214   1.400489   2.537866   0.000000
    16  C    4.284431   2.788406   2.443645   3.826381   1.391098
    17  C    3.798816   2.443686   2.850511   4.356735   2.428555
    18  N    4.913554   3.703746   4.228922   5.735060   3.693907
    19  C    2.490061   1.395938   2.438712   3.822087   2.767957
    20  C    1.436165   2.503544   3.362504   3.557151   4.594403
    21  C    2.552133   3.874768   4.710078   4.643487   5.999766
    22  C    3.791625   4.947420   5.693224   5.569816   6.908536
    23  C    4.301347   5.114670   5.731369   5.704353   6.774433
    24  C    3.746155   4.176599   4.689641   4.857770   5.574306
    25  C    2.476938   2.814620   3.420147   3.752814   4.387824
    26  N    5.634189   6.403638   6.963238   6.887339   7.939513
    27  H    5.284010   6.697319   7.755508   7.742224   9.032439
    28  H    5.285035   6.698301   7.756571   7.743258   9.034041
    29  H    4.427383   5.712178   6.935010   7.209320   8.109619
    30  H    5.325202   6.765433   7.332148   6.717800   8.723638
    31  H    4.499789   5.832822   6.160398   5.342042   7.551347
    32  H    5.323480   6.763695   7.330080   6.715509   8.721039
    33  H    4.700004   5.953343   6.707230   6.488888   7.956419
    34  H    6.228739   7.147740   7.750489   7.591745   8.797017
    35  H    6.205266   6.784376   7.251103   7.229453   8.089660
    36  H    4.616672   4.777021   5.133671   5.363423   5.797656
    37  H    2.680531   2.393773   2.804149   3.421289   3.516587
    38  H    4.024537   3.443919   2.156686   1.098456   2.635684
    39  H    2.908866   2.863574   2.167080   1.101802   3.269643
    40  H    2.909707   2.863762   2.166982   1.101785   3.270615
    41  H    4.666475   3.391432   2.153245   2.737639   1.093156
    42  H    5.376798   3.880746   3.428073   4.695590   2.158135
    43  H    4.972544   3.984034   4.769265   6.255293   4.456251
    44  H    5.770105   4.470287   4.772682   6.259052   3.980076
    45  H    2.679393   2.155696   3.423722   4.691656   3.861325
    46  H    4.700216   5.952948   6.707610   6.490172   7.958417
    47  H    4.616409   4.775442   5.134070   5.366063   5.801512
    48  H    2.680516   2.392587   2.804869   3.423541   3.520267
    49  H    6.229143   7.147009   7.751359   7.594669   8.800346
    50  H    6.205084   6.782833   7.251634   7.232599   8.093223
                   16         17         18         19         20
    16  C    0.000000
    17  C    1.406261   0.000000
    18  N    2.427125   1.379108   0.000000
    19  C    2.408672   1.407338   2.424751   0.000000
    20  C    5.104691   4.603323   5.623924   3.333581   0.000000
    21  C    6.542286   5.983510   6.929015   4.657632   1.447523
    22  C    7.433395   6.890920   7.762494   5.645599   2.450414
    23  C    7.239003   6.772903   7.585370   5.705305   2.866959
    24  C    5.981613   5.602519   6.429069   4.695909   2.463100
    25  C    4.819089   4.428555   5.383249   3.435205   1.443204
    26  N    8.381317   7.932077   8.667697   6.934721   4.200024
    27  H    9.385776   8.543386   9.221461   7.153083   5.079419
    28  H    9.387466   8.544460   9.212254   7.154224   4.611241
    29  H    8.275311   7.293885   7.837157   5.928830   4.113459
    30  H    9.505564   9.085290  10.105502   7.738585   4.635162
    31  H    8.482614   8.258601   9.413094   6.989188   4.152452
    32  H    9.503077   9.083615  10.113339   7.736916   5.100394
    33  H    8.498769   7.929848   8.809316   6.649694   5.160365
    34  H    9.267590   8.781762   9.575303   7.710211   7.059861
    35  H    8.481911   8.099712   8.849786   7.239289   7.310431
    36  H    6.127630   5.849511   6.656688   5.163656   5.955758
    37  H    3.867718   3.607788   4.644781   2.871483   4.116191
    38  H    4.025502   4.856414   6.211282   4.595188   4.599456
    39  H    4.474935   4.868994   6.230259   4.183233   3.726636
    40  H    4.475857   4.868970   6.215146   4.183640   3.061282
    41  H    2.144949   3.411290   4.569076   3.861066   5.418033
    42  H    1.092368   2.162054   2.666133   3.401785   6.168819
    43  H    3.294986   2.040621   1.014647   2.600899   5.686389
    44  H    2.603686   2.040103   1.014657   3.294006   6.546296
    45  H    3.401805   2.162625   2.660232   1.093394   3.366775
    46  H    8.500450   7.928982   8.773222   6.649193   3.451629
    47  H    6.130425   5.846356   6.578470   5.161377   3.453867
    48  H    3.870501   3.605710   4.587495   2.869916   2.191204
    49  H    9.269942   8.779513   9.513540   7.708709   4.801197
    50  H    8.484159   8.096157   8.773054   7.236672   4.801625
                   21         22         23         24         25
    21  C    0.000000
    22  C    1.380667   0.000000
    23  C    2.457098   1.425129   0.000000
    24  C    2.833404   2.447161   1.431285   0.000000
    25  C    2.462170   2.791780   2.428178   1.365843   0.000000
    26  N    3.670099   2.404738   1.333092   2.403947   3.642505
    27  H    4.043159   4.606170   5.963407   6.700733   6.332647
    28  H    3.339674   3.389729   4.656122   5.625544   5.595801
    29  H    3.289523   3.849126   5.001282   5.571805   5.202482
    30  H    3.340679   3.367292   4.643062   5.626532   5.611697
    31  H    3.288060   3.815123   4.979188   5.570209   5.226154
    32  H    4.043363   4.589090   5.952512   6.700744   6.345862
    33  H    4.633986   5.718213   7.043856   7.394761   6.602477
    34  H    6.824480   8.012280   9.276739   9.448998   8.478282
    35  H    7.417164   8.725505   9.850523   9.771277   8.636041
    36  H    6.505878   7.885834   8.756156   8.359029   7.081919
    37  H    5.081182   6.407432   6.979410   6.316063   4.969289
    38  H    5.672595   6.512120   6.534472   5.625371   4.620882
    39  H    4.611975   5.682593   6.076610   5.431387   4.297640
    40  H    4.013300   4.756180   4.807990   4.038816   3.117657
    41  H    6.780414   7.637786   7.449838   6.240595   5.146560
    42  H    7.611362   8.459450   8.181436   6.871144   5.784806
    43  H    6.874887   7.730220   7.661578   6.629994   5.601346
    44  H    7.881665   8.729354   8.523368   7.320809   6.277104
    45  H    4.493706   5.454776   5.607085   4.761083   3.611389
    46  H    2.155313   1.095056   2.157188   3.427156   3.886111
    47  H    3.925165   3.435530   2.179735   1.091877   2.139609
    48  H    3.454527   3.881745   3.408495   2.114047   1.089986
    49  H    3.992419   2.617845   2.049235   3.333147   4.473133
    50  H    4.502177   3.332019   2.049588   2.612159   3.968794
                   26         27         28         29         30
    26  N    0.000000
    27  H    6.757907   0.000000
    28  H    5.238357   1.780139   0.000000
    29  H    5.858769   1.785865   1.785864   0.000000
    30  H    5.217564   3.578259   3.104163   4.289646   0.000000
    31  H    5.826857   4.289050   4.288579   4.898844   1.786071
    32  H    6.741159   3.104988   3.578918   4.290098   1.779585
    33  H    8.118237   2.858464   4.292996   3.815162   4.256409
    34  H   10.416345   4.922768   6.550757   5.826440   6.523752
    35  H   11.086214   6.211440   7.731069   6.745542   7.713657
    36  H   10.071187   6.614390   7.757051   6.568864   7.753960
    37  H    8.311696   6.580879   7.196259   6.012469   7.214902
    38  H    7.640839   8.798451   8.799595   8.305004   7.593057
    39  H    7.299943   7.224652   7.440526   6.904351   6.298792
    40  H    5.929551   7.440754   7.226762   6.905286   6.044500
    41  H    8.561195   9.896791   9.899061   9.065028   9.322350
    42  H    9.271308  10.454766  10.456881   9.317377  10.584957
    43  H    8.745675   8.779937   8.834701   7.353084  10.007311
    44  H    9.593977  10.153615  10.200651   8.805094  11.027689
    45  H    6.807405   6.577904   6.579065   5.215836   7.587553
    46  H    2.622450   4.293685   2.859299   3.813717   2.807410
    47  H    2.648075   7.756476   6.615515   6.566740   6.615025
    48  H    4.515073   7.195301   6.582011   6.011292   6.603880
    49  H    1.016111   6.551669   4.923782   5.824132   4.893311
    50  H    1.016043   7.731080   6.212275   6.742574   6.195956
                   31         32         33         34         35
    31  H    0.000000
    32  H    1.786023   0.000000
    33  H    3.749996   2.803737   0.000000
    34  H    5.778937   4.887270   2.391233   0.000000
    35  H    6.714020   6.189952   3.635984   1.743931   0.000000
    36  H    6.562054   6.610538   4.322556   3.662518   2.416628
    37  H    6.045536   6.600702   4.975905   5.416918   4.664335
    38  H    6.141819   7.590573   7.421788   8.370287   7.893109
    39  H    4.783908   6.041210   5.660080   6.620674   6.266497
    40  H    4.784137   6.297619   6.500086   7.900764   7.768309
    41  H    8.039484   9.318915   8.670352   9.422528   8.652577
    42  H    9.540123  10.582036   9.532799  10.185617   9.290722
    43  H    9.428320   9.958570   8.504916   9.236845   8.560811
    44  H   10.256039  10.983613   9.596602  10.198004   9.333407
    45  H    7.051120   7.586100   6.387121   7.515103   7.169106
    46  H    3.750194   4.258896   5.763351   8.135765   9.044351
    47  H    6.562829   7.755204   8.474166  10.494587  10.748386
    48  H    6.045772   7.214435   7.222214   8.901098   8.850469
    49  H    5.781281   6.528277   8.136606  10.493428  11.309785
    50  H    6.716218   7.717275   9.044612  11.309283  11.899268
                   36         37         38         39         40
    36  H    0.000000
    37  H    2.441133   0.000000
    38  H    5.985115   4.165526   0.000000
    39  H    4.553215   2.983747   1.780113   0.000000
    40  H    6.087718   4.162378   1.780061   1.770805   0.000000
    41  H    6.372068   4.270130   2.372058   3.505660   3.508289
    42  H    6.895062   4.775488   4.699357   5.370864   5.372377
    43  H    6.508123   4.699010   6.849481   6.631622   6.702400
    44  H    7.076417   5.180845   6.594413   6.766862   6.835174
    45  H    5.299886   3.287560   5.558123   4.934908   4.935534
    46  H    8.474437   7.222468   7.423618   6.500587   5.662218
    47  H    9.218262   7.055817   5.989058   6.089579   4.556758
    48  H    7.056168   4.754594   4.168547   4.163739   2.986713
    49  H   10.495380   8.901568   8.374300   7.903116   6.624529
    50  H   10.748558   8.850241   7.897680   7.770848   6.270660
                   41         42         43         44         45
    41  H    0.000000
    42  H    2.469340   0.000000
    43  H    5.403005   3.631735   0.000000
    44  H    4.685682   2.426633   1.694626   0.000000
    45  H    4.954448   4.308525   2.419974   3.627381   0.000000
    46  H    8.675106   9.535872   8.681749   9.751930   6.386417
    47  H    6.382135   6.900921   6.869809   7.406837   5.297066
    48  H    4.278194   4.780326   4.957973   5.414342   3.285711
    49  H    9.430770  10.190317   9.530232  10.461625   7.512976
    50  H    8.662312   9.295911   8.917114   9.657765   7.165688
                   46         47         48         49         50
    46  H    0.000000
    47  H    4.322839   0.000000
    48  H    4.975942   2.440644   0.000000
    49  H    2.392160   3.662375   5.416685   0.000000
    50  H    3.636703   2.416211   4.663601   1.744018   0.000000
 Stoichiometry    C22H24N3Si(1+)
 Framework group  C1[X(C22H24N3Si)]
 Deg. of freedom   144
 Full point group                 C1      NOp   1
 Largest Abelian subgroup         C1      NOp   1
 Largest concise Abelian subgroup C1      NOp   1
                         Standard orientation:                         
 ---------------------------------------------------------------------
 Center     Atomic      Atomic             Coordinates (Angstroms)
 Number     Number       Type             X           Y           Z
 ---------------------------------------------------------------------
      1          6           0       -3.687889   -0.014076   -1.823017
      2         14           0       -2.761205   -0.009985   -0.192576
      3          6           0       -3.976833   -0.015540    1.234979
      4          6           0       -1.584193   -1.465207   -0.081642
      5          6           0       -2.113853   -2.739993   -0.105254
      6          6           0       -1.296344   -3.904882   -0.030982
      7          7           0       -1.827733   -5.127087   -0.063854
      8          6           0        0.118988   -3.723872    0.081401
      9          6           0        0.656669   -2.468442    0.104277
     10          6           0       -0.152605   -1.276449    0.019660
     11          6           0        0.498973    0.002861    0.047739
     12          6           0        1.993911    0.009438    0.112121
     13          6           0        2.650448    0.011484    1.356714
     14          6           0        1.871858    0.007645    2.646092
     15          6           0        4.050885    0.014770    1.345109
     16          6           0        4.781867    0.017719    0.161551
     17          6           0        4.125790    0.018494   -1.082287
     18          7           0        4.833960    0.074937   -2.264340
     19          6           0        2.718467    0.012249   -1.081049
     20          6           0       -0.162995    1.277044    0.019055
     21          6           0       -1.596036    1.454588   -0.081919
     22          6           0       -2.135736    2.725161   -0.106571
     23          6           0       -1.327165    3.896461   -0.034022
     24          6           0        0.089511    3.726442    0.078658
     25          6           0        0.636962    2.475343    0.102647
     26          7           0       -1.867580    5.114604   -0.068868
     27          1           0       -4.327814   -0.907244   -1.900234
     28          1           0       -4.336435    0.872874   -1.899952
     29          1           0       -2.991947   -0.010571   -2.675315
     30          1           0       -4.629277    0.870745    1.190366
     31          1           0       -3.451647   -0.012437    2.201912
     32          1           0       -4.619742   -0.908814    1.190999
     33          1           0       -3.195223   -2.893499   -0.184760
     34          1           0       -2.832235   -5.256694   -0.145474
     35          1           0       -1.239489   -5.953640   -0.008639
     36          1           0        0.760098   -4.605373    0.146020
     37          1           0        1.738868   -2.369465    0.189085
     38          1           0        2.548996    0.009632    3.511012
     39          1           0        1.223967   -0.880227    2.722817
     40          1           0        1.217400    0.890565    2.723975
     41          1           0        4.587227    0.012727    2.297644
     42          1           0        5.873863    0.019489    0.190001
     43          1           0        4.345448   -0.245920   -3.093747
     44          1           0        5.798548   -0.236984   -2.221864
     45          1           0        2.184413    0.010107   -2.035141
     46          1           0       -3.218286    2.869806   -0.186009
     47          1           0        0.723935    4.612817    0.142236
     48          1           0        1.719895    2.385091    0.187373
     49          1           0       -2.872999    5.236654   -0.150835
     50          1           0       -1.285303    5.945538   -0.015533
 ---------------------------------------------------------------------
 Rotational constants (GHZ):           0.2093638           0.1813563           0.1129135
 Standard basis: def2SVP (5D, 7F)
 There are   514 symmetry adapted cartesian basis functions of A   symmetry.
 There are   488 symmetry adapted basis functions of A   symmetry.
   488 basis functions,   830 primitive gaussians,   514 cartesian basis functions
    95 alpha electrons       95 beta electrons
       nuclear repulsion energy      2410.0321935260 Hartrees.
 NAtoms=   50 NActive=   50 NUniq=   50 SFac= 1.00D+00 NAtFMM=   60 NAOKFM=F Big=F
 Integral buffers will be    131072 words long.
 Regular integral format.
 Two-electron integral symmetry is turned on.
 ------------------------------------------------------------------------------
 Polarizable Continuum Model (PCM)
 =================================
 Model                : PCM.
 Atomic radii         : SMD-Coulomb.
 Polarization charges : Total charges.
 Charge compensation  : None.
 Solution method      : On-the-fly selection.
 Cavity type          : VdW (van der Waals Surface) (Alpha=1.000).
 Cavity algorithm     : GePol (No added spheres)
                        Default sphere list used, NSphG=   50.
                        Lebedev-Laikov grids with approx.  5.0 points / Ang**2.
                        Smoothing algorithm: York/Karplus (Gamma=1.0000).
                        Polarization charges: spherical gaussians, with
                                              point-specific exponents (IZeta= 3).
                        Self-potential: point-specific (ISelfS= 7).
                        Self-field    : sphere-specific E.n sum rule (ISelfD= 2).
 Solvent              : Ethanol, Eps=  24.852000 Eps(inf)=   1.852593
 ------------------------------------------------------------------------------
 ------------------------------------------------------------------------------
 Atomic radii for non-electrostatic terms: SMD-CDS.
 ------------------------------------------------------------------------------
 Nuclear repulsion after PCM non-electrostatic terms =     2410.0327410196 Hartrees.
 One-electron integrals computed using PRISM.
   1 Symmetry operations used in ECPInt.
 ECPInt:  NShTT=   26565 NPrTT=   96561 LenC2=   23420 LenP2D=   57318.
 LDataN:  DoStor=T MaxTD1= 4 Len=   56
 NBasis=   488 RedAO= T EigKep=  2.13D-04  NBF=   488
 NBsUse=   488 1.00D-06 EigRej= -1.00D+00 NBFU=   488
 Initial guess from the checkpoint file:  "07C_Si_1_C_C2_CC_N__CC_C2C_C3_C__m062x_def2SVP_ethanol.chk"
 B after Tr=     0.000000    0.000000   -0.000000
         Rot=    1.000000   -0.000000    0.000000    0.000000 Ang=   0.00 deg.
 Requested convergence on RMS density matrix=1.00D-08 within 128 cycles.
 Requested convergence on MAX density matrix=1.00D-06.
 Requested convergence on             energy=1.00D-06.
 No special actions if energy rises.
 Inv3:  Mode=1 IEnd=    40494828.
 Iteration    1 A*A^-1 deviation from unit magnitude is 1.14D-14 for    174.
 Iteration    1 A*A^-1 deviation from orthogonality  is 3.82D-15 for   3571   2554.
 Iteration    1 A^-1*A deviation from unit magnitude is 1.17D-14 for    174.
 Iteration    1 A^-1*A deviation from orthogonality  is 4.76D-15 for   3338    649.
 Error on total polarization charges =  0.04880
 SCF Done:  E(RM062X) =  -1305.19272596     A.U. after    1 cycles
            NFock=  1  Conv=0.46D-08     -V/T= 2.0095
 SMD-CDS (non-electrostatic) energy       (kcal/mol) =       0.34
 (included in total energy above)
 DoSCS=F DFT=T ScalE2(SS,OS)=  1.000000  1.000000
 ExpMin= 7.80D-02 ExpMax= 6.90D+03 ExpMxC= 1.04D+03 IAcc=3 IRadAn=         5 AccDes= 0.00D+00
 HarFok:  IExCor=  205 AccDes= 0.00D+00 IRadAn=         5 IDoV=-2 UseB2=F ITyADJ=14
 ICtDFT= 12500011 ScaDFX=  1.000000  1.000000  1.000000  1.000000
 GSVD:  LWork=       -1140 too small for GESVD, short by        4950 words or        4950 for optimal perf.
 Range of M.O.s used for correlation:    31   488
 NBasis=   488 NAE=    95 NBE=    95 NFC=    30 NFV=     0
 NROrb=    458 NOA=    65 NOB=    65 NVA=   393 NVB=   393

 **** Warning!!: The largest alpha MO coefficient is  0.11304730D+02

 NEqPCM:  Using non-equilibrium solvation (IEInf=1, Eps=  24.8520, EpsInf=   1.8526)
 Inv3:  Mode=1 IEnd=    40494828.
 Iteration    1 A*A^-1 deviation from unit magnitude is 8.77D-15 for    999.
 Iteration    1 A*A^-1 deviation from orthogonality  is 4.16D-15 for   2392    762.
 Iteration    1 A^-1*A deviation from unit magnitude is 8.88D-15 for    177.
 Iteration    1 A^-1*A deviation from orthogonality  is 2.06D-15 for   3646   2915.
 Orbital symmetries:
       Occupied  (A) (A) (A) (A) (A) (A) (A) (A) (A) (A) (A) (A)
                 (A) (A) (A) (A) (A) (A) (A) (A) (A) (A) (A) (A)
                 (A) (A) (A) (A) (A) (A) (A) (A) (A) (A) (A) (A)
                 (A) (A) (A) (A) (A) (A) (A) (A) (A) (A) (A) (A)
                 (A) (A) (A) (A) (A) (A) (A) (A) (A) (A) (A) (A)
                 (A) (A) (A) (A) (A) (A) (A) (A) (A) (A) (A) (A)
                 (A) (A) (A) (A) (A) (A) (A) (A) (A) (A) (A) (A)
                 (A) (A) (A) (A) (A) (A) (A) (A) (A) (A) (A)
       Virtual   (A) (A) (A) (A) (A) (A) (A) (A) (A) (A) (A) (A)
                 (A) (A) (A) (A) (A) (A) (A) (A) (A) (A) (A) (A)
                 (A) (A) (A) (A) (A) (A) (A) (A) (A) (A) (A) (A)
                 (A) (A) (A) (A) (A) (A) (A) (A) (A) (A) (A) (A)
                 (A) (A) (A) (A) (A) (A) (A) (A) (A) (A) (A) (A)
                 (A) (A) (A) (A) (A) (A) (A) (A) (A) (A) (A) (A)
                 (A) (A) (A) (A) (A) (A) (A) (A) (A) (A) (A) (A)
                 (A) (A) (A) (A) (A) (A) (A) (A) (A) (A) (A) (A)
                 (A) (A) (A) (A) (A) (A) (A) (A) (A) (A) (A) (A)
                 (A) (A) (A) (A) (A) (A) (A) (A) (A) (A) (A) (A)
                 (A) (A) (A) (A) (A) (A) (A) (A) (A) (A) (A) (A)
                 (A) (A) (A) (A) (A) (A) (A) (A) (A) (A) (A) (A)
                 (A) (A) (A) (A) (A) (A) (A) (A) (A) (A) (A) (A)
                 (A) (A) (A) (A) (A) (A) (A) (A) (A) (A) (A) (A)
                 (A) (A) (A) (A) (A) (A) (A) (A) (A) (A) (A) (A)
                 (A) (A) (A) (A) (A) (A) (A) (A) (A) (A) (A) (A)
                 (A) (A) (A) (A) (A) (A) (A) (A) (A) (A) (A) (A)
                 (A) (A) (A) (A) (A) (A) (A) (A) (A) (A) (A) (A)
                 (A) (A) (A) (A) (A) (A) (A) (A) (A) (A) (A) (A)
                 (A) (A) (A) (A) (A) (A) (A) (A) (A) (A) (A) (A)
                 (A) (A) (A) (A) (A) (A) (A) (A) (A) (A) (A) (A)
                 (A) (A) (A) (A) (A) (A) (A) (A) (A) (A) (A) (A)
                 (A) (A) (A) (A) (A) (A) (A) (A) (A) (A) (A) (A)
                 (A) (A) (A) (A) (A) (A) (A) (A) (A) (A) (A) (A)
                 (A) (A) (A) (A) (A) (A) (A) (A) (A) (A) (A) (A)
                 (A) (A) (A) (A) (A) (A) (A) (A) (A) (A) (A) (A)
                 (A) (A) (A) (A) (A) (A) (A) (A) (A) (A) (A) (A)
                 (A) (A) (A) (A) (A) (A) (A) (A) (A) (A) (A) (A)
                 (A) (A) (A) (A) (A) (A) (A) (A) (A) (A) (A) (A)
                 (A) (A) (A) (A) (A) (A) (A) (A) (A) (A) (A) (A)
                 (A) (A) (A) (A) (A) (A) (A) (A) (A) (A) (A) (A)
                 (A) (A) (A) (A) (A) (A) (A) (A) (A) (A) (A) (A)
                 (A) (A) (A) (A) (A) (A) (A) (A) (A)
    20 initial guesses have been made.
 Convergence on wavefunction:    0.001000000000000
 Iteration     1 Dimension    20 NMult     0 NNew     20
 CISAX will form    20 AO SS matrices at one time.
 New state      1 was old state      2
 New state      2 was old state      1
 New state      4 was old state      5
 New state      5 was old state      6
 Iteration     2 Dimension    30 NMult    20 NNew     10
 Iteration     3 Dimension    40 NMult    30 NNew     10
 Iteration     4 Dimension    50 NMult    40 NNew     10
 Iteration     5 Dimension    60 NMult    50 NNew     10
 Iteration     6 Dimension    64 NMult    60 NNew      4
 Iteration     7 Dimension    68 NMult    64 NNew      4
 Iteration     8 Dimension    70 NMult    68 NNew      2
 ***********************************************************************
 Excited states from <AA,BB:AA,BB> singles matrix:
 ***********************************************************************
 
 Ground to excited state transition densities written to RWF  633
 Ground to excited state transition electric dipole moments (Au):
       state          X           Y           Z        Dip. S.      Osc.
         1        -0.0251      3.4102      0.0008     11.6300      0.7124
         2        -0.0130     -1.7162      0.0055      2.9457      0.1885
         3        -0.0095     -0.2114      0.0013      0.0448      0.0041
         4         0.1125      0.0047      0.0281      0.0135      0.0013
         5         0.0143      0.3433      0.0003      0.1181      0.0121
 Ground to excited state transition velocity dipole moments (Au):
       state          X           Y           Z        Dip. S.      Osc.
         1         0.0024     -0.3149     -0.0002      0.0992      0.7197
         2         0.0015      0.1604     -0.0008      0.0257      0.1787
         3         0.0015      0.0251     -0.0002      0.0006      0.0031
         4        -0.0213     -0.0008     -0.0045      0.0005      0.0021
         5        -0.0022     -0.0561     -0.0000      0.0032      0.0137
 Ground to excited state transition magnetic dipole moments (Au):
       state          X           Y           Z
         1         0.0678      0.0026     -0.5308
         2         0.0539      0.0058      0.4859
         3        -0.0457      0.0000      0.3617
         4        -0.0014     -0.0110      0.0069
         5        -0.1506     -0.0004      1.2808
 Ground to excited state transition velocity quadrupole moments (Au):
       state          XX          YY          ZZ          XY          XZ          YZ
         1         0.0005     -0.0002      0.0025      0.8943     -0.0040      0.0254
         2         0.0175     -0.0136      0.0057     -0.4507     -0.0072     -0.0336
         3         0.0103     -0.0155      0.0033     -0.0877     -0.0025      0.0020
         4         0.7039     -1.4793      0.2168      0.0090      0.0426      0.0014
         5        -0.0130      0.0384     -0.0043      0.2002      0.0000      0.0127
 <0|del|b> * <b|rxdel|0> + <0|del|b> * <b|delr+rdel|0>
 Rotatory Strengths (R) in cgs (10**-40 erg-esu-cm/Gauss)
       state          XX          YY          ZZ    R(velocity)    E-M Angle
         1        -8.2304      1.8265      2.0154     -1.4628       90.19
         2         7.5963     -2.5118     -0.3654      1.5730       89.53
         3         0.0047     -0.4207     -0.3384     -0.2515       90.92
         4        -0.0722      0.0248      0.0828      0.0118       90.00
         5        -0.0534      0.6124      0.8630      0.4740       89.76
 1/2[<0|r|b>*<b|rxdel|0> + (<0|rxdel|b>*<b|r|0>)*]
 Rotatory Strengths (R) in cgs (10**-40 erg-esu-cm/Gauss)
       state          XX          YY          ZZ     R(length)
         1         1.2010     -6.3299      0.3121     -1.6056
         2         0.4947      7.0360     -1.8848      1.8820
         3        -0.3082      0.0019     -0.3304     -0.2122
         4         0.1110      0.0363     -0.1362      0.0037
         5         1.5283      0.0931     -0.3135      0.4360
  1/2[<0|del|b>*<b|r|0> + (<0|r|b>*<b|del|0>)*] (Au)
       state          X           Y           Z        Dip. S.   Osc.(frdel)
         1        -0.0001     -1.0740     -0.0000      1.0741      0.7160
         2        -0.0000     -0.2753     -0.0000      0.2753      0.1835
         3        -0.0000     -0.0053     -0.0000      0.0053      0.0035
         4        -0.0024     -0.0000     -0.0001      0.0025      0.0017
         5        -0.0000     -0.0193     -0.0000      0.0193      0.0129

 Excitation energies and oscillator strengths:
 
 Excited State   1:      Singlet-A      2.5004 eV  495.86 nm  f=0.7124  <S**2>=0.000
      95 -> 96         0.69915
 This state for optimization and/or second-order correction.
 Total Energy, E(TD-HF/TD-DFT) =  -1305.10083802    
 Copying the excited state density for this state as the 1-particle RhoCI density.
 
 Excited State   2:      Singlet-A      2.6121 eV  474.65 nm  f=0.1885  <S**2>=0.000
      94 -> 96         0.69795
 
 Excited State   3:      Singlet-A      3.7389 eV  331.60 nm  f=0.0041  <S**2>=0.000
      89 -> 96         0.13512
      93 -> 96         0.68093
 
 Excited State   4:      Singlet-A      4.0578 eV  305.55 nm  f=0.0013  <S**2>=0.000
      91 -> 96         0.55863
      92 -> 96        -0.40312
 
 Excited State   5:      Singlet-A      4.1918 eV  295.78 nm  f=0.0121  <S**2>=0.000
      90 -> 96         0.65648
      94 -> 97         0.10300
      95 -> 97        -0.19502
 SavETr:  write IOETrn=   770 NScale= 10 NData=  16 NLR=1 NState=    5 LETran=     100.

 **********************************************************************

            Population analysis using the SCF density.

 **********************************************************************

 Orbital symmetries:
       Occupied  (A) (A) (A) (A) (A) (A) (A) (A) (A) (A) (A) (A)
                 (A) (A) (A) (A) (A) (A) (A) (A) (A) (A) (A) (A)
                 (A) (A) (A) (A) (A) (A) (A) (A) (A) (A) (A) (A)
                 (A) (A) (A) (A) (A) (A) (A) (A) (A) (A) (A) (A)
                 (A) (A) (A) (A) (A) (A) (A) (A) (A) (A) (A) (A)
                 (A) (A) (A) (A) (A) (A) (A) (A) (A) (A) (A) (A)
                 (A) (A) (A) (A) (A) (A) (A) (A) (A) (A) (A) (A)
                 (A) (A) (A) (A) (A) (A) (A) (A) (A) (A) (A)
       Virtual   (A) (A) (A) (A) (A) (A) (A) (A) (A) (A) (A) (A)
                 (A) (A) (A) (A) (A) (A) (A) (A) (A) (A) (A) (A)
                 (A) (A) (A) (A) (A) (A) (A) (A) (A) (A) (A) (A)
                 (A) (A) (A) (A) (A) (A) (A) (A) (A) (A) (A) (A)
                 (A) (A) (A) (A) (A) (A) (A) (A) (A) (A) (A) (A)
                 (A) (A) (A) (A) (A) (A) (A) (A) (A) (A) (A) (A)
                 (A) (A) (A) (A) (A) (A) (A) (A) (A) (A) (A) (A)
                 (A) (A) (A) (A) (A) (A) (A) (A) (A) (A) (A) (A)
                 (A) (A) (A) (A) (A) (A) (A) (A) (A) (A) (A) (A)
                 (A) (A) (A) (A) (A) (A) (A) (A) (A) (A) (A) (A)
                 (A) (A) (A) (A) (A) (A) (A) (A) (A) (A) (A) (A)
                 (A) (A) (A) (A) (A) (A) (A) (A) (A) (A) (A) (A)
                 (A) (A) (A) (A) (A) (A) (A) (A) (A) (A) (A) (A)
                 (A) (A) (A) (A) (A) (A) (A) (A) (A) (A) (A) (A)
                 (A) (A) (A) (A) (A) (A) (A) (A) (A) (A) (A) (A)
                 (A) (A) (A) (A) (A) (A) (A) (A) (A) (A) (A) (A)
                 (A) (A) (A) (A) (A) (A) (A) (A) (A) (A) (A) (A)
                 (A) (A) (A) (A) (A) (A) (A) (A) (A) (A) (A) (A)
                 (A) (A) (A) (A) (A) (A) (A) (A) (A) (A) (A) (A)
                 (A) (A) (A) (A) (A) (A) (A) (A) (A) (A) (A) (A)
                 (A) (A) (A) (A) (A) (A) (A) (A) (A) (A) (A) (A)
                 (A) (A) (A) (A) (A) (A) (A) (A) (A) (A) (A) (A)
                 (A) (A) (A) (A) (A) (A) (A) (A) (A) (A) (A) (A)
                 (A) (A) (A) (A) (A) (A) (A) (A) (A) (A) (A) (A)
                 (A) (A) (A) (A) (A) (A) (A) (A) (A) (A) (A) (A)
                 (A) (A) (A) (A) (A) (A) (A) (A) (A) (A) (A) (A)
                 (A) (A) (A) (A) (A) (A) (A) (A) (A) (A) (A) (A)
                 (A) (A) (A) (A) (A) (A) (A) (A) (A) (A) (A) (A)
                 (A) (A) (A) (A) (A) (A) (A) (A) (A) (A) (A) (A)
                 (A) (A) (A) (A) (A) (A) (A) (A) (A) (A) (A) (A)
                 (A) (A) (A) (A) (A) (A) (A) (A) (A) (A) (A) (A)
                 (A) (A) (A) (A) (A) (A) (A) (A) (A) (A) (A) (A)
                 (A) (A) (A) (A) (A) (A) (A) (A) (A)
 The electronic state is 1-A.
 Alpha  occ. eigenvalues --  -67.01568 -14.79767 -14.79761 -14.75689 -10.63465
 Alpha  occ. eigenvalues --  -10.63456 -10.62156 -10.59817 -10.58109 -10.58103
 Alpha  occ. eigenvalues --  -10.58018 -10.57998 -10.57269 -10.57117 -10.57111
 Alpha  occ. eigenvalues --  -10.56863 -10.56857 -10.56651 -10.56633 -10.55922
 Alpha  occ. eigenvalues --  -10.55685 -10.55542 -10.55043 -10.54584 -10.53311
 Alpha  occ. eigenvalues --  -10.53306  -5.55213  -3.86529  -3.86436  -3.86409
 Alpha  occ. eigenvalues --   -1.05080  -1.05061  -1.01396  -0.97862  -0.94430
 Alpha  occ. eigenvalues --   -0.94005  -0.89109  -0.85879  -0.84998  -0.84337
 Alpha  occ. eigenvalues --   -0.82954  -0.82316  -0.78996  -0.76465  -0.75937
 Alpha  occ. eigenvalues --   -0.74730  -0.71811  -0.70657  -0.69736  -0.69119
 Alpha  occ. eigenvalues --   -0.66670  -0.64204  -0.62480  -0.61966  -0.61376
 Alpha  occ. eigenvalues --   -0.59849  -0.58696  -0.58192  -0.57339  -0.54150
 Alpha  occ. eigenvalues --   -0.53331  -0.52146  -0.51556  -0.51291  -0.51016
 Alpha  occ. eigenvalues --   -0.50770  -0.49448  -0.49048  -0.48624  -0.48599
 Alpha  occ. eigenvalues --   -0.47968  -0.47514  -0.47392  -0.46817  -0.45722
 Alpha  occ. eigenvalues --   -0.45465  -0.45402  -0.45046  -0.44273  -0.43647
 Alpha  occ. eigenvalues --   -0.43512  -0.43132  -0.41188  -0.39592  -0.39538
 Alpha  occ. eigenvalues --   -0.37574  -0.37081  -0.36318  -0.35579  -0.33211
 Alpha  occ. eigenvalues --   -0.32487  -0.31196  -0.30937  -0.25417  -0.24991
 Alpha virt. eigenvalues --   -0.09430  -0.00184   0.00868   0.01884   0.02435
 Alpha virt. eigenvalues --    0.04330   0.07993   0.08543   0.10410   0.10709
 Alpha virt. eigenvalues --    0.10813   0.11190   0.11397   0.11963   0.12949
 Alpha virt. eigenvalues --    0.13156   0.13459   0.13649   0.14399   0.15044
 Alpha virt. eigenvalues --    0.15474   0.16249   0.16832   0.17260   0.17509
 Alpha virt. eigenvalues --    0.17613   0.18200   0.19005   0.19278   0.19993
 Alpha virt. eigenvalues --    0.20124   0.21104   0.21676   0.21826   0.22444
 Alpha virt. eigenvalues --    0.23027   0.24033   0.24508   0.25715   0.27035
 Alpha virt. eigenvalues --    0.27771   0.28410   0.28840   0.29180   0.30045
 Alpha virt. eigenvalues --    0.30942   0.31724   0.32881   0.33433   0.34112
 Alpha virt. eigenvalues --    0.34598   0.34631   0.34907   0.35902   0.36618
 Alpha virt. eigenvalues --    0.37901   0.38414   0.38689   0.40535   0.41571
 Alpha virt. eigenvalues --    0.41693   0.42480   0.43049   0.43572   0.44107
 Alpha virt. eigenvalues --    0.44262   0.44891   0.45568   0.45782   0.46673
 Alpha virt. eigenvalues --    0.47932   0.48651   0.49433   0.49684   0.50771
 Alpha virt. eigenvalues --    0.50939   0.51223   0.51392   0.52149   0.52704
 Alpha virt. eigenvalues --    0.52903   0.53402   0.54152   0.54509   0.56238
 Alpha virt. eigenvalues --    0.56848   0.57687   0.57778   0.58108   0.58618
 Alpha virt. eigenvalues --    0.59443   0.59996   0.61205   0.61451   0.61852
 Alpha virt. eigenvalues --    0.62372   0.63084   0.63527   0.64392   0.64594
 Alpha virt. eigenvalues --    0.64968   0.65488   0.66331   0.66750   0.67618
 Alpha virt. eigenvalues --    0.68060   0.68509   0.69090   0.69570   0.70079
 Alpha virt. eigenvalues --    0.70652   0.70693   0.71360   0.71539   0.71953
 Alpha virt. eigenvalues --    0.72212   0.72297   0.73005   0.73306   0.73666
 Alpha virt. eigenvalues --    0.74112   0.74161   0.74639   0.75118   0.75811
 Alpha virt. eigenvalues --    0.76004   0.76219   0.77196   0.77259   0.77802
 Alpha virt. eigenvalues --    0.77986   0.78324   0.79144   0.79584   0.80066
 Alpha virt. eigenvalues --    0.80121   0.80727   0.80915   0.81032   0.81805
 Alpha virt. eigenvalues --    0.82766   0.82966   0.83495   0.83924   0.84940
 Alpha virt. eigenvalues --    0.85214   0.85290   0.86011   0.86417   0.87698
 Alpha virt. eigenvalues --    0.88121   0.88237   0.88927   0.89799   0.90352
 Alpha virt. eigenvalues --    0.90740   0.91161   0.91213   0.93174   0.94092
 Alpha virt. eigenvalues --    0.94716   0.95930   0.96551   0.96945   0.98442
 Alpha virt. eigenvalues --    1.00899   1.01018   1.01432   1.01970   1.04702
 Alpha virt. eigenvalues --    1.05604   1.07747   1.08797   1.10569   1.11571
 Alpha virt. eigenvalues --    1.12779   1.16089   1.17317   1.17831   1.21153
 Alpha virt. eigenvalues --    1.22346   1.24201   1.26341   1.26382   1.26862
 Alpha virt. eigenvalues --    1.26977   1.27326   1.28416   1.28977   1.29244
 Alpha virt. eigenvalues --    1.29478   1.29833   1.30513   1.31156   1.31730
 Alpha virt. eigenvalues --    1.32182   1.32547   1.32750   1.33722   1.34327
 Alpha virt. eigenvalues --    1.35831   1.36310   1.37419   1.37595   1.37894
 Alpha virt. eigenvalues --    1.39160   1.40381   1.41748   1.44108   1.47350
 Alpha virt. eigenvalues --    1.48641   1.51379   1.52828   1.54510   1.55097
 Alpha virt. eigenvalues --    1.56090   1.57164   1.58400   1.59011   1.59445
 Alpha virt. eigenvalues --    1.60126   1.60897   1.61438   1.62897   1.65199
 Alpha virt. eigenvalues --    1.67247   1.67288   1.68415   1.71655   1.72604
 Alpha virt. eigenvalues --    1.73401   1.75067   1.75187   1.75599   1.76218
 Alpha virt. eigenvalues --    1.77215   1.77914   1.78114   1.78515   1.78919
 Alpha virt. eigenvalues --    1.79285   1.79336   1.80056   1.80186   1.80978
 Alpha virt. eigenvalues --    1.81163   1.81315   1.81865   1.82162   1.82677
 Alpha virt. eigenvalues --    1.83161   1.83434   1.84038   1.84662   1.85518
 Alpha virt. eigenvalues --    1.86456   1.86586   1.87367   1.87494   1.87956
 Alpha virt. eigenvalues --    1.88112   1.88737   1.89564   1.90369   1.91200
 Alpha virt. eigenvalues --    1.92070   1.93102   1.93936   1.95267   1.95924
 Alpha virt. eigenvalues --    1.96415   1.97302   1.97940   1.98064   1.98693
 Alpha virt. eigenvalues --    1.98907   1.99561   1.99827   2.01327   2.02184
 Alpha virt. eigenvalues --    2.03141   2.04193   2.04399   2.04539   2.06165
 Alpha virt. eigenvalues --    2.08112   2.08527   2.09780   2.12549   2.13101
 Alpha virt. eigenvalues --    2.14598   2.15808   2.16719   2.17041   2.17622
 Alpha virt. eigenvalues --    2.17851   2.18897   2.19911   2.19973   2.20618
 Alpha virt. eigenvalues --    2.20949   2.21529   2.22245   2.23825   2.24759
 Alpha virt. eigenvalues --    2.24854   2.25859   2.26152   2.26765   2.26853
 Alpha virt. eigenvalues --    2.27332   2.29209   2.30569   2.30755   2.31603
 Alpha virt. eigenvalues --    2.32025   2.33173   2.34511   2.35345   2.36863
 Alpha virt. eigenvalues --    2.37361   2.37906   2.40346   2.40402   2.41943
 Alpha virt. eigenvalues --    2.43346   2.44021   2.44596   2.46698   2.47044
 Alpha virt. eigenvalues --    2.47271   2.49544   2.50546   2.50678   2.50885
 Alpha virt. eigenvalues --    2.54698   2.55921   2.57094   2.57477   2.60812
 Alpha virt. eigenvalues --    2.61806   2.64651   2.65711   2.66863   2.67649
 Alpha virt. eigenvalues --    2.68229   2.68985   2.69454   2.69891   2.70412
 Alpha virt. eigenvalues --    2.70802   2.71873   2.72439   2.75107   2.75279
 Alpha virt. eigenvalues --    2.76034   2.81325   2.81480   2.82338   2.83506
 Alpha virt. eigenvalues --    2.84733   2.86027   2.87714   2.88155   2.88878
 Alpha virt. eigenvalues --    2.89286   2.91774   2.92910   2.94307   2.94403
 Alpha virt. eigenvalues --    2.94928   2.95158   2.96326   2.96514   3.00972
 Alpha virt. eigenvalues --    3.01351   3.05882   3.06774   3.08940   3.10100
 Alpha virt. eigenvalues --    3.11269   3.12886   3.19289   3.19962   3.21960
 Alpha virt. eigenvalues --    3.22475   3.24637   3.50117   3.52452   3.54350
 Alpha virt. eigenvalues --    3.56158   3.56657   3.59065
          Condensed to atoms (all electrons):
               1          2          3          4          5          6
     1  C    4.818518   0.474569  -0.052710  -0.029585  -0.006187   0.000070
     2  Si   0.474569  12.133841   0.472802   0.314364  -0.036058   0.000872
[...]
    49  H   -0.000443   0.367824  -0.000000  -0.000000   0.000000  -0.000001
    50  H    0.000454   0.365624   0.000000  -0.000000  -0.000000  -0.000000
              31         32         33         34         35         36
     1  C    0.003093  -0.001761  -0.001669   0.000001  -0.000000  -0.000000
     2  Si  -0.010998  -0.015736   0.002563  -0.000096   0.000028   0.000027
     3  C    0.370700   0.374637  -0.001687   0.000001  -0.000000  -0.000000
     4  C   -0.002017  -0.003131  -0.076469   0.000429  -0.000464  -0.002316
     5  C    0.000303   0.002342   0.458359  -0.029238   0.012800   0.014719
     6  C   -0.000010  -0.000114  -0.072588   0.003107   0.002409  -0.078304
     7  N   -0.000000  -0.000004  -0.008711   0.367839   0.365632  -0.010512
     8  C   -0.000001   0.000006   0.013889   0.011706  -0.026877   0.462783
     9  C   -0.000004  -0.000006  -0.002173  -0.000443   0.000453  -0.058632
    10  C    0.000344  -0.000191   0.014728  -0.000006  -0.000032   0.015511
    11  C   -0.000060  -0.000012  -0.000298  -0.000000  -0.000000  -0.000311
    12  C   -0.000004   0.000000   0.000006   0.000000  -0.000000   0.000056
    13  C   -0.000000  -0.000000   0.000000  -0.000000   0.000000   0.000018
    14  C    0.000004   0.000000   0.000000   0.000000  -0.000000   0.000003
    15  C    0.000000  -0.000000   0.000000  -0.000000   0.000000  -0.000001
    16  C   -0.000000   0.000000  -0.000000   0.000000  -0.000000  -0.000001
    17  C   -0.000000   0.000000   0.000000   0.000000   0.000000  -0.000001
    18  N   -0.000000   0.000000  -0.000000  -0.000000   0.000000   0.000000
    19  C    0.000000  -0.000000   0.000000  -0.000000  -0.000000   0.000018
    20  C    0.000343  -0.000044   0.000054  -0.000000   0.000000   0.000005
    21  C   -0.002027   0.003163   0.000295   0.000000  -0.000000   0.000000
    22  C    0.000303  -0.000019  -0.000016  -0.000000   0.000000  -0.000000
    23  C   -0.000010   0.000012   0.000000   0.000000  -0.000000   0.000000
    24  C   -0.000002  -0.000000  -0.000000  -0.000000   0.000000  -0.000000
    25  C   -0.000004   0.000003   0.000001  -0.000000  -0.000000  -0.000000
    26  N   -0.000000  -0.000000  -0.000000  -0.000000   0.000000   0.000000
    27  H   -0.000096   0.000885   0.000727  -0.000000  -0.000000  -0.000000
    28  H   -0.000095  -0.000118  -0.000119  -0.000000   0.000000   0.000000
    29  H   -0.000084  -0.000093  -0.000032   0.000000  -0.000000  -0.000000
    30  H   -0.013233  -0.011760  -0.000129  -0.000000   0.000000   0.000000
    31  H    0.574117  -0.013234  -0.000044   0.000000  -0.000000  -0.000000
    32  H   -0.013234   0.575087   0.000875  -0.000001  -0.000000  -0.000000
    33  H   -0.000044   0.000875   0.616106   0.005817  -0.000435  -0.000177
    34  H    0.000000  -0.000001   0.005817   0.478560  -0.026997  -0.000265
    35  H   -0.000000  -0.000000  -0.000435  -0.026997   0.479164   0.004511
    36  H   -0.000000  -0.000000  -0.000177  -0.000265   0.004511   0.622413
    37  H    0.000000   0.000000   0.000017   0.000010  -0.000023  -0.013307
    38  H   -0.000000   0.000000  -0.000000   0.000000   0.000000  -0.000000
    39  H    0.000005  -0.000000  -0.000001   0.000000  -0.000000  -0.000006
    40  H    0.000005  -0.000000   0.000000   0.000000   0.000000   0.000000
    41  H   -0.000000   0.000000  -0.000000  -0.000000   0.000000   0.000000
    42  H    0.000000   0.000000  -0.000000   0.000000  -0.000000   0.000000
    43  H    0.000000  -0.000000   0.000000  -0.000000   0.000000   0.000000
    44  H   -0.000000   0.000000   0.000000   0.000000  -0.000000   0.000000
    45  H   -0.000000   0.000000  -0.000000   0.000000  -0.000000   0.000001
    46  H   -0.000044  -0.000128  -0.000002  -0.000000   0.000000   0.000000
    47  H   -0.000000   0.000000   0.000000   0.000000  -0.000000  -0.000000
    48  H    0.000000  -0.000000  -0.000000  -0.000000   0.000000  -0.000000
    49  H    0.000000  -0.000000  -0.000000  -0.000000   0.000000   0.000000
    50  H   -0.000000   0.000000   0.000000   0.000000  -0.000000  -0.000000
              37         38         39         40         41         42
     1  C    0.000001   0.000000  -0.000000  -0.000000  -0.000000   0.000000
     2  Si  -0.000234  -0.000008   0.000076   0.000074   0.000000  -0.000000
     3  C    0.000001   0.000000   0.000000   0.000000   0.000000  -0.000000
     4  C    0.014031   0.000013  -0.000496  -0.000012  -0.000000   0.000000
     5  C   -0.002407  -0.000000  -0.000020   0.000003   0.000000  -0.000000
     6  C    0.015674   0.000000   0.000012  -0.000000   0.000000  -0.000000
     7  N   -0.000075   0.000000  -0.000000  -0.000000  -0.000000   0.000000
     8  C   -0.070865  -0.000008   0.000213   0.000018  -0.000000  -0.000000
     9  C    0.457950  -0.000030   0.004456  -0.000003  -0.000009  -0.000001
    10  C   -0.052052   0.000119  -0.000443  -0.001670  -0.000005   0.000001
    11  C   -0.036103  -0.000528   0.013032   0.012954  -0.000227   0.000018
    12  C    0.009614   0.012840  -0.018360  -0.018013   0.019029  -0.002596
    13  C   -0.002216  -0.014688  -0.004138  -0.004272  -0.074621   0.016758
    14  C   -0.000467   0.387159   0.374366   0.374188  -0.016913  -0.000250
    15  C    0.000388  -0.013773   0.003618   0.003801   0.462856  -0.068484
    16  C    0.001054   0.000474  -0.000408  -0.000461  -0.074233   0.464219
    17  C    0.000432  -0.000029   0.000039   0.000076   0.016043  -0.081086
    18  N   -0.000043  -0.000000  -0.000001  -0.000000  -0.000092  -0.010944
    19  C   -0.000034  -0.000323  -0.000045  -0.000121  -0.002560   0.017341
    20  C    0.000491   0.000118  -0.001666  -0.000419  -0.000006  -0.000000
    21  C   -0.000034   0.000013  -0.000013  -0.000489  -0.000000   0.000000
    22  C   -0.000001  -0.000000   0.000003  -0.000020   0.000000   0.000000
    23  C   -0.000000   0.000000  -0.000000   0.000010   0.000000  -0.000000
    24  C    0.000000  -0.000008   0.000018   0.000214  -0.000000  -0.000000
    25  C   -0.000006  -0.000029   0.000002   0.004409  -0.000010   0.000000
    26  N   -0.000000   0.000000  -0.000000  -0.000000  -0.000000  -0.000000
    27  H    0.000000   0.000000   0.000000  -0.000000  -0.000000   0.000000
    28  H   -0.000000   0.000000  -0.000000   0.000000  -0.000000   0.000000
    29  H    0.000000   0.000000  -0.000000  -0.000000   0.000000  -0.000000
    30  H   -0.000000   0.000000  -0.000000  -0.000000   0.000000   0.000000
    31  H    0.000000  -0.000000   0.000005   0.000005  -0.000000   0.000000
    32  H    0.000000   0.000000  -0.000000  -0.000000   0.000000   0.000000
    33  H    0.000017  -0.000000  -0.000001   0.000000  -0.000000  -0.000000
    34  H    0.000010   0.000000   0.000000   0.000000  -0.000000   0.000000
    35  H   -0.000023   0.000000  -0.000000   0.000000   0.000000  -0.000000
    36  H   -0.013307  -0.000000  -0.000006   0.000000   0.000000   0.000000
    37  H    0.615950   0.000019  -0.000214   0.000047  -0.000008  -0.000009
    38  H    0.000019   0.607060  -0.019024  -0.019028   0.006593  -0.000005
    39  H   -0.000214  -0.019024   0.618719  -0.021987   0.000331   0.000008
    40  H    0.000047  -0.019028  -0.021987   0.618663   0.000327   0.000006
    41  H   -0.000008   0.006593   0.000331   0.000327   0.643061  -0.012211
    42  H   -0.000009  -0.000005   0.000008   0.000006  -0.012211   0.647149
    43  H   -0.000007   0.000000  -0.000000   0.000000   0.000011  -0.000301
    44  H   -0.000004  -0.000000  -0.000000   0.000000  -0.000016   0.004848
    45  H   -0.000113   0.000007  -0.000004  -0.000010   0.000012  -0.000189
    46  H   -0.000000  -0.000000   0.000000  -0.000001  -0.000000  -0.000000
    47  H   -0.000000  -0.000000   0.000000  -0.000006   0.000000   0.000000
    48  H    0.000013   0.000018   0.000051  -0.000241  -0.000008  -0.000011
    49  H   -0.000000   0.000000   0.000000   0.000000  -0.000000   0.000000
    50  H    0.000000   0.000000   0.000000  -0.000000   0.000000  -0.000000
              43         44         45         46         47         48
     1  C   -0.000000  -0.000000  -0.000002  -0.001668  -0.000000   0.000001
     2  Si   0.000000  -0.000000   0.000070   0.002534   0.000027  -0.000234
     3  C   -0.000000   0.000000   0.000000  -0.001677  -0.000000   0.000001
     4  C   -0.000000   0.000000  -0.000278   0.000296   0.000000  -0.000034
     5  C    0.000000   0.000000   0.000004  -0.000016  -0.000000  -0.000001
     6  C   -0.000000  -0.000000  -0.000004   0.000000   0.000000  -0.000000
     7  N   -0.000000   0.000000  -0.000000  -0.000000   0.000000  -0.000000
     8  C    0.000000   0.000000   0.000003  -0.000000  -0.000000   0.000000
     9  C    0.000004   0.000001   0.000781   0.000001  -0.000000  -0.000007
    10  C   -0.000012  -0.000000  -0.000062   0.000054   0.000005   0.000504
    11  C    0.000002   0.000014  -0.006879  -0.000297  -0.000312  -0.036039
    12  C    0.000688  -0.000555  -0.078981   0.000006   0.000056   0.009712
    13  C   -0.000041  -0.000015   0.016670   0.000000   0.000017  -0.002129
    14  C   -0.000001  -0.000001  -0.000171   0.000000   0.000003  -0.000469
    15  C   -0.000438   0.000455  -0.003194   0.000000  -0.000001   0.000403
    16  C    0.010483  -0.023126   0.017391  -0.000000  -0.000001   0.000991
    17  C   -0.004328  -0.004508  -0.073764   0.000000  -0.000002   0.000527
    18  N    0.367573   0.364878  -0.010698  -0.000000   0.000000  -0.000049
    19  C   -0.025162   0.011566   0.469679   0.000000   0.000019  -0.000395
    20  C    0.000004   0.000000  -0.000502   0.014741   0.015522  -0.052051
    21  C   -0.000000   0.000000  -0.000297  -0.076510  -0.002315   0.013997
    22  C   -0.000000  -0.000000   0.000005   0.458431   0.014706  -0.002400
    23  C    0.000000  -0.000000  -0.000005  -0.072611  -0.078405   0.015661
    24  C   -0.000000  -0.000000   0.000017   0.013885   0.462781  -0.070639
    25  C   -0.000000  -0.000000   0.000849  -0.002176  -0.058489   0.458013
    26  N   -0.000000   0.000000  -0.000000  -0.008704  -0.010515  -0.000075
    27  H    0.000000  -0.000000  -0.000000  -0.000119   0.000000  -0.000000
    28  H    0.000000  -0.000000  -0.000000   0.000724  -0.000000   0.000000
    29  H   -0.000000   0.000000   0.000003  -0.000032  -0.000000   0.000000
    30  H   -0.000000   0.000000   0.000000   0.000865  -0.000000   0.000000
    31  H    0.000000  -0.000000  -0.000000  -0.000044  -0.000000   0.000000
    32  H   -0.000000   0.000000   0.000000  -0.000128   0.000000  -0.000000
    33  H    0.000000   0.000000  -0.000000  -0.000002   0.000000  -0.000000
    34  H   -0.000000   0.000000   0.000000  -0.000000   0.000000  -0.000000
    35  H    0.000000  -0.000000  -0.000000   0.000000  -0.000000   0.000000
    36  H    0.000000   0.000000   0.000001   0.000000  -0.000000  -0.000000
    37  H   -0.000007  -0.000004  -0.000113  -0.000000  -0.000000   0.000013
    38  H    0.000000  -0.000000   0.000007  -0.000000  -0.000000   0.000018
    39  H   -0.000000  -0.000000  -0.000004   0.000000   0.000000   0.000051
    40  H    0.000000   0.000000  -0.000010  -0.000001  -0.000006  -0.000241
    41  H    0.000011  -0.000016   0.000012  -0.000000   0.000000  -0.000008
    42  H   -0.000301   0.004848  -0.000189  -0.000000   0.000000  -0.000011
    43  H    0.511337  -0.026489   0.004637  -0.000000  -0.000000   0.000006
    44  H   -0.026489   0.511047  -0.000317   0.000000   0.000000  -0.000000
    45  H    0.004637  -0.000317   0.644368  -0.000000   0.000001  -0.000171
    46  H   -0.000000   0.000000  -0.000000   0.616209  -0.000177   0.000017
    47  H   -0.000000   0.000000   0.000001  -0.000177   0.622246  -0.013304
    48  H    0.000006  -0.000000  -0.000171   0.000017  -0.013304   0.615094
    49  H   -0.000000   0.000000   0.000000   0.005808  -0.000264   0.000010
    50  H   -0.000000  -0.000000  -0.000000  -0.000435   0.004509  -0.000023
              49         50
     1  C    0.000001  -0.000000
     2  Si  -0.000096   0.000028
     3  C    0.000001  -0.000000
     4  C    0.000000  -0.000000
     5  C   -0.000000   0.000000
     6  C    0.000000  -0.000000
     7  N   -0.000000   0.000000
     8  C   -0.000000   0.000000
     9  C   -0.000000  -0.000000
    10  C   -0.000000   0.000000
    11  C   -0.000000  -0.000000
    12  C    0.000000  -0.000000
    13  C   -0.000000   0.000000
    14  C    0.000000  -0.000000
    15  C   -0.000000   0.000000
    16  C    0.000000  -0.000000
    17  C    0.000000  -0.000000
    18  N   -0.000000   0.000000
    19  C   -0.000000  -0.000000
    20  C   -0.000006  -0.000032
    21  C    0.000428  -0.000464
    22  C   -0.029225   0.012795
    23  C    0.003100   0.002420
    24  C    0.011706  -0.026882
    25  C   -0.000443   0.000454
    26  N    0.367824   0.365624
    27  H   -0.000000   0.000000
    28  H   -0.000000  -0.000000
    29  H    0.000000  -0.000000
    30  H   -0.000001  -0.000000
    31  H    0.000000  -0.000000
    32  H   -0.000000   0.000000
    33  H   -0.000000   0.000000
    34  H   -0.000000   0.000000
    35  H    0.000000  -0.000000
    36  H    0.000000  -0.000000
    37  H   -0.000000   0.000000
    38  H    0.000000   0.000000
    39  H    0.000000   0.000000
    40  H    0.000000  -0.000000
    41  H   -0.000000   0.000000
    42  H    0.000000  -0.000000
    43  H   -0.000000  -0.000000
    44  H    0.000000  -0.000000
    45  H    0.000000  -0.000000
    46  H    0.005808  -0.000435
    47  H   -0.000264   0.004509
    48  H    0.000010  -0.000023
    49  H    0.478581  -0.026997
    50  H   -0.026997   0.479092
 Mulliken charges:
               1
     1  C   -0.284336
     2  Si   0.498593
     3  C   -0.286819
     4  C   -0.161983
     5  C   -0.081497
     6  C    0.058176
     7  N   -0.064687
     8  C   -0.040183
     9  C   -0.007994
    10  C   -0.006939
    11  C    0.022647
    12  C   -0.148036
    13  C   -0.115579
    14  C    0.075003
    15  C   -0.084633
    16  C   -0.066399
    17  C    0.040062
    18  N   -0.168121
    19  C   -0.049939
    20  C   -0.006903
    21  C   -0.162154
    22  C   -0.081309
    23  C    0.058203
    24  C   -0.040031
    25  C   -0.007727
    26  N   -0.064545
    27  H    0.089009
    28  H    0.089083
    29  H    0.092391
    30  H    0.089383
    31  H    0.092750
    32  H    0.089342
    33  H    0.051112
    34  H    0.189575
    35  H    0.189834
    36  H    0.043770
    37  H    0.062530
    38  H    0.053047
    39  H    0.051877
    40  H    0.051956
    41  H    0.032660
    42  H    0.025738
    43  H    0.162035
    44  H    0.162222
    45  H    0.021144
    46  H    0.051026
    47  H    0.043899
    48  H    0.063262
    49  H    0.189572
    50  H    0.189911
 Sum of Mulliken charges =   1.00000
 Mulliken charges with hydrogens summed into heavy atoms:
               1
     1  C   -0.013854
     2  Si   0.498593
     3  C   -0.015344
     4  C   -0.161983
     5  C   -0.030384
     6  C    0.058176
     7  N    0.314721
     8  C    0.003587
     9  C    0.054536
    10  C   -0.006939
    11  C    0.022647
    12  C   -0.148036
    13  C   -0.115579
    14  C    0.231883
    15  C   -0.051972
    16  C   -0.040661
    17  C    0.040062
    18  N    0.156136
    19  C   -0.028795
    20  C   -0.006903
    21  C   -0.162154
    22  C   -0.030283
    23  C    0.058203
    24  C    0.003868
    25  C    0.055536
    26  N    0.314938
 Electronic spatial extent (au):  <R**2>=           9826.7456
 Charge=              1.0000 electrons
 Dipole moment (field-independent basis, Debye):
    X=             -5.6937    Y=             -1.1361    Z=             -1.7358  Tot=              6.0598
 Quadrupole moment (field-independent basis, Debye-Ang):
   XX=           -100.4384   YY=            -45.6316   ZZ=           -152.9122
   XY=             -6.0552   XZ=             -4.6887   YZ=              3.0301
 Traceless Quadrupole moment (field-independent basis, Debye-Ang):
   XX=             -0.7777   YY=             54.0291   ZZ=            -53.2514
   XY=             -6.0552   XZ=             -4.6887   YZ=              3.0301
 Octapole moment (field-independent basis, Debye-Ang**2):
  XXX=             27.6862  YYY=             -2.7907  ZZZ=            -24.2033  XYY=           -214.7765
  XXY=            -28.7045  XXZ=            -51.7950  XZZ=             48.5023  YZZ=             -8.6464
  YYZ=             -5.8491  XYZ=             15.6055
 Hexadecapole moment (field-independent basis, Debye-Ang**3):
 XXXX=          -5248.1452 YYYY=          -1482.3199 ZZZZ=          -1088.7469 XXXY=           -164.5262
 XXXZ=           -242.9843 YYYX=            -14.3930 YYYZ=              0.2434 ZZZX=           -110.8062
 ZZZY=             25.3552 XXYY=          -1459.1720 XXZZ=          -1128.6442 YYZZ=          -1195.0700
 XXYZ=             78.5222 YYXZ=             35.2426 ZZXY=            -42.5177
 N-N= 2.410032741020D+03 E-N=-7.840484938378D+03  KE= 1.292870372642D+03
 1\1\GINC-X1002C2S5B0N0\SP\RM062X TD-FC\def2SVP\C22H24N3Si1(1+)\XIAOGAN
 4\25-Dec-2025\0\\# m062x/def2SVP TD=(NStates=5, Root=1) SCRF=(SMD, sol
 vent=Ethanol) geom=check guess=read\\Step7 De-excitation m062x/def2SVP
 \\1,1\C,0,-3.7983168739,1.0772327083,1.1240156405\Si,0,-2.5601833791,0
 .9278019486,-0.2766242931\C,0,-3.3339685781,1.5142776359,-1.8806807042
 \C,0,-0.9920191388,1.8823753539,0.1041430374\C,0,-1.0798178941,3.25113
 56841,0.2621409397\C,0,0.057565355,4.0572691892,0.5576265682\N,0,-0.05
 06931944,5.3766964284,0.714570991\C,0,1.3262381012,3.4062258821,0.6808
 067972\C,0,1.4273590885,2.0525900776,0.5285780543\C,0,0.2864778995,1.2
 172260985,0.2396340158\C,0,0.4858263219,-0.1978870108,0.0993131293\C,0
 ,1.8714170244,-0.7197185627,0.3157794996\C,0,2.7702097379,-0.815004748
 3,-0.7627144744\C,0,2.3641270286,-0.3980720571,-2.1519502502\C,0,4.051
 9759489,-1.3090431772,-0.4900054243\C,0,4.4398687065,-1.6969198032,0.7
 883703309\C,0,3.5407846218,-1.6043370365,1.8657033997\N,0,3.891140157,
 -2.0338452065,3.12852261\C,0,2.2511631854,-1.1062711963,1.6022525458\C
 ,0,-0.5325456761,-1.1551153241,-0.2311435868\C,0,-1.9283982531,-0.8302
 486359,-0.434562213\C,0,-2.8324245484,-1.8264321714,-0.7453611832\C,0,
 -2.4441227804,-3.1910784372,-0.8793553148\C,0,-1.0628855226,-3.5159433
 867,-0.6916789891\C,0,-0.1580749302,-2.5406622234,-0.3823697851\N,0,-3
 .3346176747,-4.1393433192,-1.1708120835\H,0,-4.12107288,2.1236067906,1
 .2429502175\H,0,-4.6931365143,0.470333516,0.913819273\H,0,-3.363782335
 8,0.7373418887,2.0760736418\H,0,-4.2244499142,0.9128970311,-2.12267508
 49\H,0,-2.6222926743,1.4335546542,-2.7160188499\H,0,-3.6515064602,2.56
 54303341,-1.7943592939\H,0,-2.042797275,3.7634039246,0.1646853997\H,0,
 -0.9511886576,5.8396166423,0.6291487495\H,0,0.7644480004,5.9461085326,
 0.9233367628\H,0,2.2095675224,4.0093076965,0.9004947571\H,0,2.40964764
 59,1.5913490278,0.6310967587\H,0,3.1913224994,-0.5420551756,-2.8602032
 147\H,0,2.0690841842,0.6630063468,-2.184031118\H,0,1.5020711861,-0.982
 2119809,-2.5119078352\H,0,4.7720918302,-1.3904548386,-1.308416022\H,0,
 5.4485231229,-2.0773079886,0.9649760647\H,0,3.3466341329,-1.6552412276
 ,3.8964297623\H,0,4.8856058066,-2.0762708408,3.3254143513\H,0,1.534102
 6996,-1.0219356973,2.4233627886\H,0,-3.8909720061,-1.5911593607,-0.897
 9125818\H,0,-0.7462785625,-4.555565357,-0.7972319504\H,0,0.8848450873,
 -2.8261003334,-0.2448479325\H,0,-4.3158009164,-3.9102958931,-1.3023339
 889\H,0,-3.0507502543,-5.1102664014,-1.2660499118\\Version=ES64L-G16Re
 vA.03\State=1-A\HF=-1305.192726\RMSD=4.641e-09\PG=C01 [X(C22H24N3Si1)]
 \\@


 THE BEST WAY TO CONVINCE A FOOL THAT HE IS WRONG 
 IS TO LET HIM HAVE HIS OWN WAY.

                                         JOSH BILLINGS
 Job cpu time:       0 days  4 hours 15 minutes 54.3 seconds.
 Elapsed time:       0 days  0 hours  4 minutes  7.5 seconds.
 File lengths (MBytes):  RWF=   1822 Int=      0 D2E=      0 Chk=     64 Scr=      1
 Normal termination of Gaussian 16 at Thu Dec 25 01:00:08 2025.
