 Entering Gaussian System, Link 0=g16
 Initial command:
 /home/users/ntu/xiaogan4/Softwares/g16/l1.exe "/scratch/users/ntu/xiaogan4/g16scratch/Gau-3591460.inp" -scrdir="/scratch/users/ntu/xiaogan4/g16scratch/"
 Entering Link 1 = /home/users/ntu/xiaogan4/Softwares/g16/l1.exe PID=   3591461.
  
 Copyright (c) 1988,1990,1992,1993,1995,1998,2003,2009,2016,
            Gaussian, Inc.  All Rights Reserved.
  
 This is part of the Gaussian(R) 16 program.  It is based on
 the Gaussian(R) 09 system (copyright 2009, Gaussian, Inc.),
 the Gaussian(R) 03 system (copyright 2003, Gaussian, Inc.),
 the Gaussian(R) 98 system (copyright 1998, Gaussian, Inc.),
 the Gaussian(R) 94 system (copyright 1995, Gaussian, Inc.),
 the Gaussian 92(TM) system (copyright 1992, Gaussian, Inc.),
 the Gaussian 90(TM) system (copyright 1990, Gaussian, Inc.),
 the Gaussian 88(TM) system (copyright 1988, Gaussian, Inc.),
 the Gaussian 86(TM) system (copyright 1986, Carnegie Mellon
 University), and the Gaussian 82(TM) system (copyright 1983,
 Carnegie Mellon University). Gaussian is a federally registered
 trademark of Gaussian, Inc.
  
 This software contains proprietary and confidential information,
 including trade secrets, belonging to Gaussian, Inc.
  
 This software is provided under written license and may be
 used, copied, transmitted, or stored only in accord with that
 written license.
  
 The following legend is applicable only to US Government
 contracts under FAR:
  
                    RESTRICTED RIGHTS LEGEND
  
 Use, reproduction and disclosure by the US Government is
 subject to restrictions as set forth in subparagraphs (a)
 and (c) of the Commercial Computer Software - Restricted
 Rights clause in FAR 52.227-19.
  
 Gaussian, Inc.
 340 Quinnipiac St., Bldg. 40, Wallingford CT 06492
  
  
 ---------------------------------------------------------------
 Warning -- This program may not be used in any manner that
 competes with the business of Gaussian, Inc. or will provide
 assistance to any competitor of Gaussian, Inc.  The licensee
 of this program is prohibited from giving any competitor of
 Gaussian, Inc. access to this program.  By using this program,
 the user acknowledges that Gaussian, Inc. is engaged in the
 business of creating and licensing software in the field of
 computational chemistry and represents and warrants to the
 licensee that it is not a competitor of Gaussian, Inc. and that
 it will not use this program in any manner prohibited above.
 ---------------------------------------------------------------
  

 Cite this work as:
 Gaussian 16, Revision A.03,
 M. J. Frisch, G. W. Trucks, H. B. Schlegel, G. E. Scuseria, 
 M. A. Robb, J. R. Cheeseman, G. Scalmani, V. Barone, 
 G. A. Petersson, H. Nakatsuji, X. Li, M. Caricato, A. V. Marenich, 
 J. Bloino, B. G. Janesko, R. Gomperts, B. Mennucci, H. P. Hratchian, 
 J. V. Ortiz, A. F. Izmaylov, J. L. Sonnenberg, D. Williams-Young, 
 F. Ding, F. Lipparini, F. Egidi, J. Goings, B. Peng, A. Petrone, 
 T. Henderson, D. Ranasinghe, V. G. Zakrzewski, J. Gao, N. Rega, 
 G. Zheng, W. Liang, M. Hada, M. Ehara, K. Toyota, R. Fukuda, 
 J. Hasegawa, M. Ishida, T. Nakajima, Y. Honda, O. Kitao, H. Nakai, 
 T. Vreven, K. Throssell, J. A. Montgomery, Jr., J. E. Peralta, 
 F. Ogliaro, M. J. Bearpark, J. J. Heyd, E. N. Brothers, K. N. Kudin, 
 V. N. Staroverov, T. A. Keith, R. Kobayashi, J. Normand, 
 K. Raghavachari, A. P. Rendell, J. C. Burant, S. S. Iyengar, 
 J. Tomasi, M. Cossi, J. M. Millam, M. Klene, C. Adamo, R. Cammi, 
 J. W. Ochterski, R. L. Martin, K. Morokuma, O. Farkas, 
 J. B. Foresman, and D. J. Fox, Gaussian, Inc., Wallingford CT, 2016.
 
 ******************************************
 Gaussian 16:  ES64L-G16RevA.03 25-Dec-2016
                16-Jan-2026 
 ******************************************
 %nprocshared=40
 Will use up to   40 processors via shared memory.
 %mem=128GB
 %chk=04BDP-NH2__m062x_def2SVP_dmso.chk
 ---------------------------------------------------------------------
 # td=(nstates=5,root=1) scrf=(smd,solvent=ethanol) def2svp m062x freq
 ---------------------------------------------------------------------
 1/10=4,30=1,38=1/1,3;
 2/12=2,17=6,18=5,40=1/2;
 3/5=43,7=101,11=9,25=1,30=1,70=32201,71=2,72=4,74=-55,140=1/1,2,3,8;
 4//1;
 5/5=2,38=5,53=4,98=1/2;
 8/6=1,10=1,107=1,108=5/1;
 9/8=1,15=3,41=5,42=1,70=2/14;
 10/5=2004,20=4,28=1/2;
 11/6=1,8=1,12=-1,16=1,42=3/1,2,10;
 10/6=3,21=1,28=1/2,14;
 6/7=2,8=2,9=2,10=2/1;
 7/8=1,10=1,12=6,13=8,14=1,25=1,44=2/1,2,3,16;
 1/10=4,30=1/3;
 99//99;
 --------------------------
 Step4 ES Opt m062x/def2SVP
 --------------------------
 Symbolic Z-matrix:
 Charge =  0 Multiplicity = 1
 C                    -0.76602  -1.23829  -0.06949 
 C                    -0.76601   1.23828  -0.06949 
 C                    -0.06019  -0.00001  -0.13872 
 C                    -0.32196  -2.59044  -0.1138 
 C                    -1.48723  -3.38788   0.00147 
 C                    -2.59369  -2.54965   0.11151 
 H                    -1.51918  -4.47791   0.00447 
 C                    -2.59366   2.54966   0.11151 
 C                    -0.32194   2.59043  -0.11381 
 C                    -1.4872    3.38788   0.00146 
 H                    -1.51914   4.47792   0.00445 
 N                    -2.15574  -1.24518   0.06795 
 N                    -2.15573   1.24519   0.06795 
 B                    -3.04718   0.00001   0.15985 
 F                    -4.00693   0.00001  -0.88819 
 F                    -3.77279   0.00001   1.38216 
 C                     1.41864  -0.00001  -0.28208 
 C                     2.26204  -0.00001   0.86545 
 C                     2.02739  -0.00002  -1.57046 
 C                     3.6303   -0.00001   0.74709 
 H                     1.80408  -0.00001   1.85608 
 C                     3.39323  -0.00002  -1.71798 
 H                     1.38691  -0.00002  -2.45416 
 C                     4.23357  -0.00002  -0.55576 
 H                     4.28102  -0.00002   1.62251 
 H                     3.85947  -0.00002  -2.70527 
 N                     5.55729  -0.00001  -0.66987 
 H                     5.99193  -0.00001  -1.59109 
 H                     6.16051  0.         0.1738 
 O                     7.02037   0.00002   1.70915 
 H                     6.93078  -0.76695   2.29826 
 H                     6.93076   0.767     2.29825 
 C                     1.07347  -3.12853  -0.2523 
 H                     1.56394  -2.81762  -1.19034 
 H                     1.73918  -2.81625   0.57017 
 H                     1.05303  -4.22991  -0.24944 
 C                    -4.03459  -2.92325   0.25585 
 H                    -4.47129  -2.52467   1.18707 
 H                    -4.64734  -2.52786  -0.57169 
 H                    -4.14165  -4.01772   0.26846 
 C                     1.0735    3.12851  -0.2523 
 H                     1.7392    2.81623   0.57016 
 H                     1.56397   2.81759  -1.19035 
 H                     1.05307   4.22989  -0.24945 
 C                    -4.03456   2.92328   0.25584 
 H                    -4.64732   2.52789  -0.5717 
 H                    -4.47127   2.5247    1.18706 
 H                    -4.14161   4.01775   0.26845 
 

 GradGradGradGradGradGradGradGradGradGradGradGradGradGradGradGradGradGrad
 Berny optimization.
 Initialization pass.
 Trust Radius=3.00D-01 FncErr=1.00D-07 GrdErr=1.00D-07 EigMax=2.50D+02 EigMin=1.00D-04
 Number of steps in this run=      2 maximum allowed number of steps=      2.
 GradGradGradGradGradGradGradGradGradGradGradGradGradGradGradGradGradGrad

                          Input orientation:                          
 ---------------------------------------------------------------------
 Center     Atomic      Atomic             Coordinates (Angstroms)
 Number     Number       Type             X           Y           Z
 ---------------------------------------------------------------------
      1          6           0       -0.766024   -1.238287   -0.069486
      2          6           0       -0.766013    1.238284   -0.069489
      3          6           0       -0.060193   -0.000005   -0.138718
      4          6           0       -0.321959   -2.590438   -0.113804
      5          6           0       -1.487228   -3.387875    0.001472
      6          6           0       -2.593685   -2.549645    0.111514
      7          1           0       -1.519180   -4.477913    0.004465
      8          6           0       -2.593662    2.549659    0.111506
      9          6           0       -0.321935    2.590431   -0.113810
     10          6           0       -1.487198    3.387878    0.001463
     11          1           0       -1.519139    4.477917    0.004452
     12          7           0       -2.155738   -1.245179    0.067950
     13          7           0       -2.155726    1.245188    0.067947
     14          5           0       -3.047183    0.000009    0.159849
     15          9           0       -4.006927    0.000012   -0.888189
     16          9           0       -3.772786    0.000014    1.382158
     17          6           0        1.418644   -0.000011   -0.282082
     18          6           0        2.262037   -0.000013    0.865449
     19          6           0        2.027394   -0.000015   -1.570456
     20          6           0        3.630300   -0.000014    0.747093
     21          1           0        1.804081   -0.000012    1.856076
     22          6           0        3.393234   -0.000017   -1.717981
     23          1           0        1.386908   -0.000015   -2.454164
     24          6           0        4.233565   -0.000015   -0.555764
     25          1           0        4.281022   -0.000015    1.622507
     26          1           0        3.859471   -0.000018   -2.705265
     27          7           0        5.557286   -0.000012   -0.669874
     28          1           0        5.991927   -0.000012   -1.591092
     29          1           0        6.160507   -0.000004    0.173795
     30          8           0        7.020375    0.000023    1.709151
     31          1           0        6.930779   -0.766947    2.298263
     32          1           0        6.930758    0.767003    2.298246
     33          6           0        1.073466   -3.128534   -0.252295
     34          1           0        1.563940   -2.817619   -1.190343
     35          1           0        1.739176   -2.816250    0.570169
     36          1           0        1.053033   -4.229911   -0.249440
     37          6           0       -4.034587   -2.923251    0.255850
     38          1           0       -4.471294   -2.524669    1.187067
     39          1           0       -4.647343   -2.527860   -0.571690
     40          1           0       -4.141650   -4.017719    0.268460
     41          6           0        1.073495    3.128514   -0.252303
     42          1           0        1.739200    2.816228    0.570164
     43          1           0        1.563967    2.817591   -1.190349
     44          1           0        1.053071    4.229892   -0.249453
     45          6           0       -4.034561    2.923278    0.255841
     46          1           0       -4.647320    2.527891   -0.571699
     47          1           0       -4.471272    2.524703    1.187059
     48          1           0       -4.141614    4.017748    0.268447
 ---------------------------------------------------------------------
                    Distance matrix (angstroms):
                    1          2          3          4          5
     1  C    0.000000
     2  C    2.476571   0.000000
     3  C    1.427001   1.427002   0.000000
     4  C    1.423893   3.854641   2.603744   0.000000
     5  C    2.268457   4.682578   3.678824   1.416703   0.000000
     6  C    2.256716   4.209698   3.603035   2.283237   1.392475
     7  H    3.326844   5.766076   4.711773   2.238278   1.090510
     8  C    4.209698   2.256715   3.603035   5.624233   6.040746
     9  C    3.854642   1.423893   2.603745   5.180869   6.091908
    10  C    4.682577   2.268457   3.678824   6.091907   6.775753
    11  H    5.766076   3.326844   4.711773   7.169998   7.865857
    12  N    1.396510   2.849178   2.446319   2.281557   2.245545
    13  N    2.849177   1.396509   2.446319   4.255322   4.681515
    14  B    2.605697   2.605697   3.001875   3.769900   3.733136
    15  F    3.564704   3.564703   4.017265   4.570459   4.314876
    16  F    3.561078   3.561078   4.012033   4.566897   4.313683
    17  C    2.520178   2.520178   1.485770   3.125433   4.472373
    18  C    3.402437   3.402437   2.530040   3.787647   5.126505
    19  C    3.404323   3.404322   2.531382   3.788349   5.128462
    20  C    4.639805   4.639801   3.795313   4.803310   6.182447
    21  H    3.441882   3.441883   2.730333   3.887259   5.074435
    22  C    4.642227   4.642225   3.797398   4.804823   6.184902
    23  H    3.443127   3.443128   2.730456   3.886876   5.076259
    24  C    5.173555   5.173551   4.313964   5.259127   6.672000
    25  H    5.465238   5.465235   4.684876   5.559901   6.883172
    26  H    5.465880   5.465877   4.685182   5.559703   6.884126
    27  N    6.471324   6.471317   5.642535   6.448647   7.845604
    28  H    7.036939   7.036932   6.223949   6.982682   8.363709
    29  H    7.040551   7.040541   6.228545   6.986804   8.366314
    30  O    8.082386   8.082369   7.317723   7.996469   9.315220
    31  H    8.066547   8.298663   7.443169   7.857824   9.110837
    32  H    8.298662   8.066508   7.443151   8.348191   9.664402
    33  C    2.643894   4.741962   3.329531   1.501978   2.586273
    34  H    3.029743   4.809921   3.417992   2.183383   3.324942
    35  H    3.029051   4.808782   3.416356   2.183366   3.325636
    36  H    3.505876   5.765628   4.375344   2.144032   2.687919
    37  C    3.691673   5.301679   4.949430   3.745800   2.601850
    38  H    4.118583   5.428430   5.252566   4.348974   3.324968
    39  H    4.120661   5.431461   5.255422   4.350003   3.324826
    40  H    4.385693   6.255774   5.741612   4.095521   2.741157
    41  C    4.741962   2.643895   3.329532   5.888369   7.006071
    42  H    4.808783   3.029052   3.416357   5.826511   7.015992
    43  H    4.809921   3.029743   3.417992   5.827731   7.016982
    44  H    5.765629   3.505877   4.375345   6.958880   8.034081
    45  C    5.301679   3.691673   4.949430   6.657411   6.810599
    46  H    5.431461   4.120661   5.255422   6.716823   6.731344
    47  H    5.428431   4.118584   5.252566   6.713696   6.728203
    48  H    6.255774   4.385693   5.741613   7.642251   7.871486
                    6          7          8          9         10
     6  C    0.000000
     7  H    2.210031   0.000000
     8  C    5.099304   7.110045   0.000000
     9  C    5.624233   7.169998   2.283237   0.000000
    10  C    6.040745   7.865857   1.392474   1.416703   0.000000
    11  H    7.110045   8.955830   2.210031   2.238278   1.090511
    12  N    1.376709   3.295422   3.820271   4.255323   4.681515
    13  N    3.820270   5.758742   1.376710   2.281557   2.245545
    14  B    2.590122   4.733996   2.590122   3.769901   3.733135
    15  F    3.081787   5.199762   3.081786   4.570459   4.314876
    16  F    3.083111   5.198905   3.083112   4.566898   4.313682
    17  C    4.770150   5.363257   4.770150   3.125431   4.472372
    18  C    5.535980   5.923722   5.535980   3.787646   5.126504
    19  C    5.539315   5.925380   5.539313   3.788347   5.128460
    20  C    6.755928   6.864417   6.755924   4.803303   6.182440
    21  H    5.374427   5.875723   5.374429   3.887260   5.074436
    22  C    6.759501   6.866599   6.759497   4.804817   6.184896
    23  H    5.378516   5.877225   5.378516   3.886877   5.076259
    24  C    7.318280   7.311601   7.318273   5.259117   6.671990
    25  H    7.486342   7.504130   7.486337   5.559894   6.883165
    26  H    7.488529   7.504936   7.488523   5.559696   6.884118
    27  N    8.576102   8.401351   8.576091   6.448631   7.845588
    28  H    9.116591   8.888989   9.116578   6.982665   8.363692
    29  H    9.118137   8.891453   9.118121   6.986782   8.366292
    30  O   10.073897   9.791929  10.073868   7.996431   9.315179
    31  H    9.933544   9.509710  10.319727   8.348170   9.664378
    32  H   10.319737  10.206470   9.933492   7.857764   9.110773
    33  C    3.730344   2.934035   6.769199   5.888368   7.006070
    34  H    4.364916   3.699969   6.912897   5.827731   7.016982
    35  H    4.365218   3.701085   6.912079   5.826509   7.015990
    36  H    4.031394   2.596585   7.706571   6.958879   8.034080
    37  C    1.495531   2.967733   5.661258   6.657411   6.810599
    38  H    2.163990   3.732116   5.516443   6.713696   6.728202
    39  H    2.164429   3.730960   5.519562   6.716823   6.731343
    40  H    2.139175   2.675597   6.749174   7.642251   7.871485
    41  C    6.769199   8.040250   3.730345   1.501978   2.586274
    42  H    6.912080   8.008842   4.365217   2.183365   3.325635
    43  H    6.912897   8.009854   4.364916   2.183384   3.324944
    44  H    7.706572   9.083326   4.031394   2.144032   2.687920
    45  C    5.661258   7.820995   1.495531   3.745800   2.601849
    46  H    5.519562   7.694057   2.164429   4.350003   3.324825
    47  H    5.516442   7.690904   2.163991   4.348974   3.324967
    48  H    6.749175   8.895117   2.139175   4.095522   2.741157
                   11         12         13         14         15
    11  H    0.000000
    12  N    5.758743   0.000000
    13  N    3.295423   2.490367   0.000000
    14  B    4.733997   1.534149   1.534149   0.000000
    15  F    5.199763   2.427262   2.427263   1.421088   0.000000
    16  F    5.198905   2.427446   2.427446   1.421457   2.282389
    17  C    5.363256   3.801207   3.801205   4.487640   5.459321
    18  C    5.923721   4.658667   4.658666   5.355902   6.509620
    19  C    5.925378   4.661910   4.661908   5.361463   6.072769
    20  C    6.864408   5.957341   5.957337   6.703256   7.810338
    21  H    5.875726   4.519735   4.519734   5.139256   6.426415
    22  C    6.866591   5.960794   5.960791   6.708593   7.446539
    23  H    5.877225   4.523476   4.523475   5.147254   5.616559
    24  C    7.311588   6.539315   6.539311   7.315832   8.247194
    25  H    7.504122   6.737875   6.737871   7.472748   8.659890
    26  H    7.504926   6.739725   6.739721   7.477349   8.073536
    27  N    8.401331   7.847647   7.847640   8.644381   9.566704
    28  H    8.888966   8.407574   8.407567   9.207133  10.023530
    29  H    8.891424   8.409613   8.409604   9.207701  10.222745
    30  O    9.791876   9.404526   9.404510  10.186072  11.329058
    31  H   10.206433   9.368447   9.570139  10.233316  11.418192
    32  H    9.509634   9.570136   9.368409  10.233295  11.418170
    33  C    8.040250   3.751978   5.446070   5.190124   6.000213
    34  H    8.009854   4.229879   5.650275   5.569964   6.250192
    35  H    8.008840   4.229757   5.649581   5.568564   6.563219
    36  H    9.083325   4.393811   6.354021   5.905211   6.625967
    37  C    7.820995   2.526125   4.576168   3.087010   3.139276
    38  H    7.690904   2.872511   4.563563   3.075267   3.300960
    39  H    7.694057   2.874457   4.566528   3.079900   2.626869
    40  H    8.895116   3.416289   5.628702   4.165548   4.183079
    41  C    2.934035   5.446072   3.751979   5.190125   6.000214
    42  H    3.701083   5.649583   4.229756   5.568564   6.563219
    43  H    3.699970   5.650276   4.229879   5.569965   6.250193
    44  H    2.596584   6.354023   4.393811   5.905211   6.625968
    45  C    2.967734   4.576168   2.526126   3.087010   3.139276
    46  H    3.730961   4.566529   2.874459   3.079901   2.626869
    47  H    3.732116   4.563564   2.872512   3.075267   3.300960
    48  H    2.675598   5.628704   3.416290   4.165549   4.183079
                   16         17         18         19         20
    16  F    0.000000
    17  C    5.451664   0.000000
    18  C    6.056903   1.424128   0.000000
    19  C    6.508457   1.424951   2.447180   0.000000
    20  C    7.430275   2.439390   1.373372   2.817861   0.000000
    21  H    5.596967   2.172621   1.091359   3.433801   2.136567
    22  C    7.807862   2.441477   2.820234   1.373784   2.476447
    23  H    6.429604   2.172314   3.433028   1.091404   3.909073
    24  C    8.237548   2.828194   2.430385   2.428331   1.435745
    25  H    8.057394   3.438120   2.156255   3.908178   1.090774
    26  H    8.657850   3.439397   3.911751   2.155063   3.459956
    27  N    9.553066   4.156770   3.635366   3.642964   2.391876
    28  H   10.207342   4.756934   4.466170   3.964587   3.323310
    29  H   10.006520   4.763726   3.959350   4.486093   2.594343
    30  O   10.798113   5.945116   4.832558   5.973749   3.523942
    31  H   10.770041   6.134330   4.943510   6.292722   3.726590
    32  H   10.770021   6.134314   4.943498   6.292706   3.726582
    33  C    5.995449   3.147649   3.528413   3.526352   4.162189
    34  H    6.560294   2.963944   3.557039   2.880654   3.995297
    35  H    6.242787   2.959776   2.879542   3.549158   3.396886
    36  H    6.621398   4.245797   4.538359   4.537233   5.052466
    37  C    3.143658   6.210671   6.968817   6.973401   8.218098
    38  H    2.626785   6.574471   7.198269   7.497383   8.497252
    39  H    3.312479   6.578001   7.496326   7.206917   8.754917
    40  H    4.185518   6.882001   7.583242   7.588192   8.762092
    41  C    5.995449   3.147647   3.528411   3.526350   4.162179
    42  H    6.242787   2.959777   2.879543   3.549160   3.396878
    43  H    6.560295   2.963941   3.557035   2.880651   3.995286
    44  H    6.621399   4.245796   4.538359   4.537231   5.052457
    45  C    3.143658   6.210670   6.968816   6.973400   8.218093
    46  H    3.312481   6.578000   7.496326   7.206916   8.754913
    47  H    2.626785   6.574471   7.198269   7.497383   8.497249
    48  H    4.185519   6.882001   7.583242   7.588191   8.762087
                   21         22         23         24         25
    21  H    0.000000
    22  C    3.911431   0.000000
    23  H    4.330381   2.137126   0.000000
    24  C    3.423356   1.434191   3.421605   0.000000
    25  H    2.487929   3.456447   4.999514   2.178788   0.000000
    26  H    5.003045   1.091836   2.485281   2.181811   4.348254
    27  N    4.524044   2.404506   4.536049   1.328630   2.623711
    28  H    5.424115   2.601789   4.685199   2.040525   3.640661
    29  H    4.669959   3.352106   5.449167   2.060428   2.373021
    30  O    5.218363   4.990129   7.004937   3.591121   2.740723
    31  H    5.202572   5.406720   7.342224   4.001077   2.840078
    32  H    5.202561   5.406706   7.342206   4.001067   2.840078
    33  C    3.842743   4.161391   3.838503   4.457124   4.857049
    34  H    4.156591   3.400529   3.093134   3.932999   4.820120
    35  H    3.096606   3.987820   4.147513   3.926943   3.936950
    36  H    4.784278   5.052243   4.781663   5.301098   5.640578
    37  C    6.722804   8.222763   6.729197   8.807177   8.919777
    38  H    6.797190   8.755796   7.345133   9.229621   9.119568
    39  H    7.341998   8.506166   6.807782   9.233676   9.535209
    40  H    7.349436   8.767118   7.356601   9.325530   9.429570
    41  C    3.842745   4.161383   3.838504   4.457109   4.857040
    42  H    3.096609   3.987815   4.147517   3.926932   3.936942
    43  H    4.156591   3.400519   3.093135   3.932983   4.820109
    44  H    4.784282   5.052234   4.781664   5.301083   5.640569
    45  C    6.722806   8.222759   6.729197   8.807170   8.919772
    46  H    7.342000   8.506162   6.807782   9.233671   9.535205
    47  H    6.797192   8.755794   7.345133   9.229616   9.119565
    48  H    7.349439   8.767113   7.356602   9.325522   9.429565
                   26         27         28         29         30
    26  H    0.000000
    27  N    2.650546   0.000000
    28  H    2.405982   1.018605   0.000000
    29  H    3.685614   1.037137   1.772920   0.000000
    30  O    5.429400   2.792918   3.456777   1.759742   0.000000
    31  H    5.920845   3.359242   4.073907   2.386396   0.971248
    32  H    5.920832   3.359237   4.073901   2.386394   0.971248
    33  C    4.854534   5.483308   5.980910   5.987256   7.000062
    34  H    3.937426   4.914937   5.263704   5.561318   6.791086
    35  H    4.811994   4.903761   5.539687   5.257045   6.092597
    36  H    5.639075   6.193311   6.639635   6.645113   7.572159
    37  C    8.923544  10.070070  10.606013  10.606227  11.526916
    38  H    9.535500  10.506881  11.116252  10.974327  11.777313
    39  H    9.127322  10.513520  10.982862  11.124542  12.154344
    40  H    9.434135  10.540009  11.058449  11.058274  11.950257
    41  C    4.854523   5.483286   5.980887   5.987226   7.000010
    42  H    4.811988   4.903742   5.539668   5.257017   6.092546
    43  H    3.937414   4.914914   5.263679   5.561287   6.791037
    44  H    5.639063   6.193286   6.639607   6.645078   7.572096
    45  C    8.923539  10.070060  10.606001  10.606211  11.526888
    46  H    9.127317  10.513511  10.982852  11.124529  12.154320
    47  H    9.535496  10.506872  11.116242  10.974314  11.777289
    48  H    9.434128  10.539995  11.058433  11.058254  11.950219
                   31         32         33         34         35
    31  H    0.000000
    32  H    1.533950   0.000000
    33  C    6.811061   7.482535   0.000000
    34  H    6.721502   7.336382   1.103253   0.000000
    35  H    5.842833   6.540526   1.103240   1.769212   0.000000
    36  H    7.282226   8.124500   1.101570   1.772257   1.772283
    37  C   11.360473  11.748538   5.137369   5.783264   5.783302
    38  H   11.590152  11.919589   5.760276   6.493223   6.247841
    39  H   12.057792  12.375180   5.761118   6.248738   6.494200
    40  H   11.716924  12.231591   5.315945   6.010167   6.009881
    41  C    7.482498   6.810988   6.257048   6.039615   6.038196
    42  H    6.540486   5.842762   6.038198   5.905111   5.632478
    43  H    7.336348   6.721432   6.039614   5.635210   5.905107
    44  H    8.124451   7.282141   7.358455   7.128371   7.126755
    45  C   11.748529  11.360421   7.935652   8.148163   8.147210
    46  H   12.375177  12.057744   8.051370   8.218087   8.405417
    47  H   11.919585  11.590105   8.048289   8.403346   8.214377
    48  H   12.231572  11.716862   8.862143   9.022398   9.020990
                   36         37         38         39         40
    36  H    0.000000
    37  C    5.276984   0.000000
    38  H    5.957314   1.103062   0.000000
    39  H    5.957777   1.103008   1.767549   0.000000
    40  H    5.224747   1.099764   1.783733   1.783608   0.000000
    41  C    7.358454   7.935653   8.048289   8.051370   8.862143
    42  H    7.126756   8.147210   8.214377   8.405417   9.020990
    43  H    7.128369   8.148163   8.403346   8.218087   9.022397
    44  H    8.459803   8.792443   8.843432   8.846794   9.760965
    45  C    8.792442   5.846529   5.544190   5.547541   6.941835
    46  H    8.846794   5.547543   5.352813   5.055751   6.618654
    47  H    8.843432   5.544190   5.049372   5.352812   6.614814
    48  H    9.760965   6.941836   6.614815   6.618654   8.035467
                   41         42         43         44         45
    41  C    0.000000
    42  H    1.103240   0.000000
    43  H    1.103253   1.769213   0.000000
    44  H    1.101571   1.772284   1.772257   0.000000
    45  C    5.137370   5.783301   5.783265   5.276984   0.000000
    46  H    5.761118   6.494199   6.248739   5.957777   1.103008
    47  H    5.760277   6.247840   6.493224   5.957315   1.103062
    48  H    5.315946   6.009880   6.010168   5.224747   1.099765
                   46         47         48
    46  H    0.000000
    47  H    1.767550   0.000000
    48  H    1.783608   1.783734   0.000000
 Stoichiometry    C19H22BF2N3O
 Framework group  C1[X(C19H22BF2N3O)]
 Deg. of freedom   138
 Full point group                 C1      NOp   1
 Largest Abelian subgroup         C1      NOp   1
 Largest concise Abelian subgroup C1      NOp   1
                         Standard orientation:                         
 ---------------------------------------------------------------------
 Center     Atomic      Atomic             Coordinates (Angstroms)
 Number     Number       Type             X           Y           Z
 ---------------------------------------------------------------------
      1          6           0       -0.766024   -1.238287   -0.069486
      2          6           0       -0.766013    1.238284   -0.069489
      3          6           0       -0.060193   -0.000005   -0.138718
      4          6           0       -0.321959   -2.590438   -0.113804
      5          6           0       -1.487228   -3.387875    0.001472
      6          6           0       -2.593685   -2.549645    0.111514
      7          1           0       -1.519180   -4.477913    0.004465
      8          6           0       -2.593662    2.549659    0.111506
      9          6           0       -0.321935    2.590431   -0.113810
     10          6           0       -1.487198    3.387878    0.001463
     11          1           0       -1.519139    4.477917    0.004452
     12          7           0       -2.155738   -1.245179    0.067950
     13          7           0       -2.155726    1.245188    0.067947
     14          5           0       -3.047183    0.000009    0.159849
     15          9           0       -4.006927    0.000012   -0.888189
     16          9           0       -3.772786    0.000014    1.382158
     17          6           0        1.418644   -0.000011   -0.282082
     18          6           0        2.262037   -0.000013    0.865449
     19          6           0        2.027394   -0.000015   -1.570456
     20          6           0        3.630300   -0.000014    0.747093
     21          1           0        1.804081   -0.000012    1.856076
     22          6           0        3.393234   -0.000017   -1.717981
     23          1           0        1.386908   -0.000015   -2.454164
     24          6           0        4.233565   -0.000015   -0.555764
     25          1           0        4.281022   -0.000015    1.622507
     26          1           0        3.859471   -0.000018   -2.705265
     27          7           0        5.557286   -0.000012   -0.669874
     28          1           0        5.991927   -0.000012   -1.591092
     29          1           0        6.160507   -0.000004    0.173795
     30          8           0        7.020375    0.000023    1.709151
     31          1           0        6.930779   -0.766947    2.298263
     32          1           0        6.930758    0.767003    2.298246
     33          6           0        1.073466   -3.128534   -0.252295
     34          1           0        1.563940   -2.817619   -1.190343
     35          1           0        1.739176   -2.816250    0.570169
     36          1           0        1.053033   -4.229911   -0.249440
     37          6           0       -4.034587   -2.923251    0.255850
     38          1           0       -4.471294   -2.524669    1.187067
     39          1           0       -4.647343   -2.527860   -0.571690
     40          1           0       -4.141650   -4.017719    0.268460
     41          6           0        1.073495    3.128514   -0.252303
     42          1           0        1.739200    2.816228    0.570164
     43          1           0        1.563967    2.817591   -1.190349
     44          1           0        1.053071    4.229892   -0.249453
     45          6           0       -4.034561    2.923278    0.255841
     46          1           0       -4.647320    2.527891   -0.571699
     47          1           0       -4.471272    2.524703    1.187059
     48          1           0       -4.141614    4.017748    0.268447
 ---------------------------------------------------------------------
 Rotational constants (GHZ):           0.3336231           0.1294933           0.1021120
 Standard basis: def2SVP (5D, 7F)
 There are   500 symmetry adapted cartesian basis functions of A   symmetry.
 There are   474 symmetry adapted basis functions of A   symmetry.
   474 basis functions,   804 primitive gaussians,   500 cartesian basis functions
    94 alpha electrons       94 beta electrons
       nuclear repulsion energy      2355.1372969602 Hartrees.
 NAtoms=   48 NActive=   48 NUniq=   48 SFac= 1.00D+00 NAtFMM=   60 NAOKFM=F Big=F
 Integral buffers will be    131072 words long.
 Regular integral format.
 Two-electron integral symmetry is turned on.
 Force inversion solution in PCM.
 ------------------------------------------------------------------------------
 Polarizable Continuum Model (PCM)
 =================================
 Model                : PCM.
 Atomic radii         : SMD-Coulomb.
 Polarization charges : Total charges.
 Charge compensation  : None.
 Solution method      : Matrix inversion.
 Cavity type          : VdW (van der Waals Surface) (Alpha=1.000).
 Cavity algorithm     : GePol (No added spheres)
                        Default sphere list used, NSphG=   48.
                        Lebedev-Laikov grids with approx.  5.0 points / Ang**2.
                        Smoothing algorithm: York/Karplus (Gamma=1.0000).
                        Polarization charges: spherical gaussians, with
                                              point-specific exponents (IZeta= 3).
                        Self-potential: point-specific (ISelfS= 7).
                        Self-field    : sphere-specific E.n sum rule (ISelfD= 2).
 1st derivatives      : Analytical E(r).r(x)/FMM algorithm (CHGder, D1EAlg=3).
                        Cavity 1st derivative terms included.
 2nd derivatives      : Analytical E(r).r(xy)/FMM algorithm (CHGder, D2EAlg=3).
                        Cavity 2nd derivative terms included.
 Solvent              : Ethanol, Eps=  24.852000 Eps(inf)=   1.852593
 ------------------------------------------------------------------------------
 ------------------------------------------------------------------------------
 Atomic radii for non-electrostatic terms: SMD-CDS.
 ------------------------------------------------------------------------------
 Nuclear repulsion after PCM non-electrostatic terms =     2355.1353341194 Hartrees.
 One-electron integrals computed using PRISM.
   1 Symmetry operations used in ECPInt.
 ECPInt:  NShTT=   24753 NPrTT=   89657 LenC2=   21404 LenP2D=   52442.
 LDataN:  DoStor=T MaxTD1= 4 Len=   56
 NBasis=   474 RedAO= T EigKep=  2.65D-04  NBF=   474
 NBsUse=   474 1.00D-06 EigRej= -1.00D+00 NBFU=   474
 ExpMin= 8.36D-02 ExpMax= 2.89D+03 ExpMxC= 4.35D+02 IAcc=3 IRadAn=         5 AccDes= 0.00D+00
 Harris functional with IExCor= 1009 and IRadAn=       5 diagonalized for initial guess.
 HarFok:  IExCor= 1009 AccDes= 0.00D+00 IRadAn=         5 IDoV= 1 UseB2=F ITyADJ=14
 ICtDFT=  3500011 ScaDFX=  1.000000  1.000000  1.000000  1.000000
 FoFCou: FMM=F IPFlag=           0 FMFlag=      100000 FMFlg1=           0
         NFxFlg=           0 DoJE=T BraDBF=F KetDBF=T FulRan=T
         wScrn=  0.000000 ICntrl=       500 IOpCl=  0 I1Cent=   200000004 NGrid=           0
         NMat0=    1 NMatS0=      1 NMatT0=    0 NMatD0=    1 NMtDS0=    0 NMtDT0=    0
 Petite list used in FoFCou.
 Requested convergence on RMS density matrix=1.00D-08 within 128 cycles.
 Requested convergence on MAX density matrix=1.00D-06.
 Requested convergence on             energy=1.00D-06.
 No special actions if energy rises.
 Inv3:  Mode=1 IEnd=    36960300.
 Iteration    1 A*A^-1 deviation from unit magnitude is 6.66D-15 for   3506.
 Iteration    1 A*A^-1 deviation from orthogonality  is 2.60D-15 for   1715    157.
 Iteration    1 A^-1*A deviation from unit magnitude is 6.44D-15 for   3487.
 Iteration    1 A^-1*A deviation from orthogonality  is 1.62D-14 for   1675   1627.
 Error on total polarization charges =  0.04807
 SCF Done:  E(RM062X) =  -1200.16163792     A.U. after   12 cycles
            NFock= 12  Conv=0.93D-08     -V/T= 2.0105
 SMD-CDS (non-electrostatic) energy       (kcal/mol) =      -1.23
 (included in total energy above)
 DoSCS=F DFT=T ScalE2(SS,OS)=  1.000000  1.000000
 ExpMin= 8.36D-02 ExpMax= 2.89D+03 ExpMxC= 4.35D+02 IAcc=3 IRadAn=         5 AccDes= 0.00D+00
 HarFok:  IExCor=  205 AccDes= 0.00D+00 IRadAn=         5 IDoV=-2 UseB2=F ITyADJ=14
 ICtDFT= 12500011 ScaDFX=  1.000000  1.000000  1.000000  1.000000
 GSVD:  LWork=        -884 too small for GESVD, short by        3770 words or        3770 for optimal perf.
 Range of M.O.s used for correlation:    27   474
 NBasis=   474 NAE=    94 NBE=    94 NFC=    26 NFV=     0
 NROrb=    448 NOA=    68 NOB=    68 NVA=   380 NVB=   380

 **** Warning!!: The largest alpha MO coefficient is  0.13586069D+02

 NEqPCM:  Using equilibrium solvation (IEInf=0, Eps=  24.8520, EpsInf=   1.8526)
 Orbital symmetries:
       Occupied  (A) (A) (A) (A) (A) (A) (A) (A) (A) (A) (A) (A)
                 (A) (A) (A) (A) (A) (A) (A) (A) (A) (A) (A) (A)
                 (A) (A) (A) (A) (A) (A) (A) (A) (A) (A) (A) (A)
                 (A) (A) (A) (A) (A) (A) (A) (A) (A) (A) (A) (A)
                 (A) (A) (A) (A) (A) (A) (A) (A) (A) (A) (A) (A)
                 (A) (A) (A) (A) (A) (A) (A) (A) (A) (A) (A) (A)
                 (A) (A) (A) (A) (A) (A) (A) (A) (A) (A) (A) (A)
                 (A) (A) (A) (A) (A) (A) (A) (A) (A) (A)
       Virtual   (A) (A) (A) (A) (A) (A) (A) (A) (A) (A) (A) (A)
                 (A) (A) (A) (A) (A) (A) (A) (A) (A) (A) (A) (A)
                 (A) (A) (A) (A) (A) (A) (A) (A) (A) (A) (A) (A)
                 (A) (A) (A) (A) (A) (A) (A) (A) (A) (A) (A) (A)
                 (A) (A) (A) (A) (A) (A) (A) (A) (A) (A) (A) (A)
                 (A) (A) (A) (A) (A) (A) (A) (A) (A) (A) (A) (A)
                 (A) (A) (A) (A) (A) (A) (A) (A) (A) (A) (A) (A)
                 (A) (A) (A) (A) (A) (A) (A) (A) (A) (A) (A) (A)
                 (A) (A) (A) (A) (A) (A) (A) (A) (A) (A) (A) (A)
                 (A) (A) (A) (A) (A) (A) (A) (A) (A) (A) (A) (A)
                 (A) (A) (A) (A) (A) (A) (A) (A) (A) (A) (A) (A)
                 (A) (A) (A) (A) (A) (A) (A) (A) (A) (A) (A) (A)
                 (A) (A) (A) (A) (A) (A) (A) (A) (A) (A) (A) (A)
                 (A) (A) (A) (A) (A) (A) (A) (A) (A) (A) (A) (A)
                 (A) (A) (A) (A) (A) (A) (A) (A) (A) (A) (A) (A)
                 (A) (A) (A) (A) (A) (A) (A) (A) (A) (A) (A) (A)
                 (A) (A) (A) (A) (A) (A) (A) (A) (A) (A) (A) (A)
                 (A) (A) (A) (A) (A) (A) (A) (A) (A) (A) (A) (A)
                 (A) (A) (A) (A) (A) (A) (A) (A) (A) (A) (A) (A)
                 (A) (A) (A) (A) (A) (A) (A) (A) (A) (A) (A) (A)
                 (A) (A) (A) (A) (A) (A) (A) (A) (A) (A) (A) (A)
                 (A) (A) (A) (A) (A) (A) (A) (A) (A) (A) (A) (A)
                 (A) (A) (A) (A) (A) (A) (A) (A) (A) (A) (A) (A)
                 (A) (A) (A) (A) (A) (A) (A) (A) (A) (A) (A) (A)
                 (A) (A) (A) (A) (A) (A) (A) (A) (A) (A) (A) (A)
                 (A) (A) (A) (A) (A) (A) (A) (A) (A) (A) (A) (A)
                 (A) (A) (A) (A) (A) (A) (A) (A) (A) (A) (A) (A)
                 (A) (A) (A) (A) (A) (A) (A) (A) (A) (A) (A) (A)
                 (A) (A) (A) (A) (A) (A) (A) (A) (A) (A) (A) (A)
                 (A) (A) (A) (A) (A) (A) (A) (A) (A) (A) (A) (A)
                 (A) (A) (A) (A) (A) (A) (A) (A) (A) (A) (A) (A)
                 (A) (A) (A) (A) (A) (A) (A) (A)
    20 initial guesses have been made.
 Convergence on wavefunction:    0.000001000000000
 Iteration     1 Dimension    20 NMult     0 NNew     20
 CISAX will form    20 AO SS matrices at one time.
 Iteration     2 Dimension    30 NMult    20 NNew     10
 Iteration     3 Dimension    40 NMult    30 NNew     10
 Iteration     4 Dimension    50 NMult    40 NNew     10
 Iteration     5 Dimension    60 NMult    50 NNew     10
 Iteration     6 Dimension    70 NMult    60 NNew     10
 Iteration     7 Dimension    80 NMult    70 NNew     10
 Iteration     8 Dimension    90 NMult    80 NNew     10
 Iteration     9 Dimension    98 NMult    90 NNew      8
 Iteration    10 Dimension   100 NMult    98 NNew      2
 Iteration    11 Dimension   102 NMult   100 NNew      2
 ***********************************************************************
 Excited states from <AA,BB:AA,BB> singles matrix:
 ***********************************************************************
 
 Ground to excited state transition densities written to RWF  633
 Ground to excited state transition electric dipole moments (Au):
       state          X           Y           Z        Dip. S.      Osc.
         1         0.0000      0.0065      0.0000      0.0000      0.0000
         2        -0.0000     -3.7725      0.0000     14.2315      0.8870
         3         0.0000      0.6353     -0.0000      0.4036      0.0356
         4         0.9241     -0.0000     -0.0922      0.8625      0.0826
         5         0.0000     -0.1430     -0.0000      0.0204      0.0022
 Ground to excited state transition velocity dipole moments (Au):
       state          X           Y           Z        Dip. S.      Osc.
         1        -0.0000     -0.0006     -0.0000      0.0000      0.0000
         2         0.0000      0.3547     -0.0000      0.1258      0.8970
         3        -0.0000     -0.0877      0.0000      0.0077      0.0388
         4        -0.1351      0.0000      0.0135      0.0184      0.0855
         5        -0.0000      0.0272      0.0000      0.0007      0.0030
 Ground to excited state transition magnetic dipole moments (Au):
       state          X           Y           Z
         1         0.1392      0.0000     -0.0126
         2         0.1215     -0.0000      0.2392
         3         0.1505      0.0000      1.7608
         4        -0.0000      0.0363     -0.0000
         5         0.0127      0.0000      0.0644
 Ground to excited state transition velocity quadrupole moments (Au):
       state          XX          YY          ZZ          XY          XZ          YZ
         1        -0.0000     -0.0000      0.0000      0.0014     -0.0000      0.0059
         2        -0.0000      0.0000     -0.0000     -1.1131      0.0000      0.0123
         3        -0.0000      0.0000     -0.0000     -0.5036      0.0000      0.0743
         4         0.6725     -0.4539     -0.0004     -0.0000     -0.0285     -0.0000
         5        -0.0000      0.0000     -0.0000      0.0100      0.0000     -0.0084
 <0|del|b> * <b|rxdel|0> + <0|del|b> * <b|delr+rdel|0>
 Rotatory Strengths (R) in cgs (10**-40 erg-esu-cm/Gauss)
       state          XX          YY          ZZ    R(velocity)    E-M Angle
         1        -0.0000     -0.0001     -0.0001     -0.0000       90.00
         2        -0.0015     -0.0019      0.0024     -0.0004       90.00
         3        -0.0001     -0.0000     -0.0006     -0.0003       90.00
         4        -0.0001      0.0002      0.0003      0.0001       90.00
         5         0.0000     -0.0000     -0.0000     -0.0000       90.00
 1/2[<0|r|b>*<b|rxdel|0> + (<0|rxdel|b>*<b|r|0>)*]
 Rotatory Strengths (R) in cgs (10**-40 erg-esu-cm/Gauss)
       state          XX          YY          ZZ     R(length)
         1        -0.0001     -0.0000      0.0000     -0.0000
         2         0.0017     -0.0018     -0.0009     -0.0003
         3        -0.0001     -0.0007      0.0003     -0.0002
         4         0.0005      0.0003     -0.0004      0.0001
         5        -0.0000      0.0000      0.0000     -0.0000
  1/2[<0|del|b>*<b|r|0> + (<0|r|b>*<b|del|0>)*] (Au)
       state          X           Y           Z        Dip. S.   Osc.(frdel)
         1        -0.0000     -0.0000     -0.0000      0.0000      0.0000
         2        -0.0000     -1.3379     -0.0000      1.3379      0.8919
         3        -0.0000     -0.0557     -0.0000      0.0557      0.0371
         4        -0.1248     -0.0000     -0.0012      0.1261      0.0841
         5        -0.0000     -0.0039     -0.0000      0.0039      0.0026

 Excitation energies and oscillator strengths:
 
 Excited State   1:      Singlet-A      2.2961 eV  539.97 nm  f=0.0000  <S**2>=0.000
      88 -> 95        -0.10506
      94 -> 95         0.69589
 This state for optimization and/or second-order correction.
 Total Energy, E(TD-HF/TD-DFT) =  -1200.07725645    
 Copying the excited state density for this state as the 1-particle RhoCI density.
 
 Excited State   2:      Singlet-A      2.5438 eV  487.39 nm  f=0.8870  <S**2>=0.000
      93 -> 95         0.70200
 
 Excited State   3:      Singlet-A      3.5977 eV  344.62 nm  f=0.0356  <S**2>=0.000
      92 -> 95         0.69506
 
 Excited State   4:      Singlet-A      3.9106 eV  317.04 nm  f=0.0826  <S**2>=0.000
      91 -> 95         0.70378
 
 Excited State   5:      Singlet-A      4.4787 eV  276.83 nm  f=0.0022  <S**2>=0.000
      90 -> 95         0.69773
      92 -> 95         0.10115
 SavETr:  write IOETrn=   770 NScale= 10 NData=  16 NLR=1 NState=    5 LETran=     100.
          IDoAtm=111111111111111111111111111111111111111111111111
 NEqPCM:  Using equilibrium solvation (IEInf=0, Eps=  24.8520, EpsInf=   1.8526)
          Differentiating once with respect to electric field.
                with respect to dipole field.
          Differentiating once with respect to nuclear coordinates.
          There are     1 degrees of freedom in the 1st order CPHF.  IDoFFX=0 NUNeed=     1.
 LinEq1:  Iter=  0 NonCon=     1 RMS=3.71D-03 Max=1.46D-01 NDo=     1
 AX will form     1 AO Fock derivatives at one time.
 LinEq1:  Iter=  1 NonCon=     1 RMS=1.27D-03 Max=1.23D-01 NDo=     1
 LinEq1:  Iter=  2 NonCon=     1 RMS=8.28D-04 Max=9.03D-02 NDo=     1
 LinEq1:  Iter=  3 NonCon=     1 RMS=3.33D-04 Max=2.83D-02 NDo=     1
 LinEq1:  Iter=  4 NonCon=     1 RMS=1.66D-04 Max=1.12D-02 NDo=     1
 LinEq1:  Iter=  5 NonCon=     1 RMS=6.99D-05 Max=3.56D-03 NDo=     1
 LinEq1:  Iter=  6 NonCon=     1 RMS=2.83D-05 Max=1.82D-03 NDo=     1
 LinEq1:  Iter=  7 NonCon=     1 RMS=1.26D-05 Max=4.66D-04 NDo=     1
 LinEq1:  Iter=  8 NonCon=     1 RMS=4.79D-06 Max=3.30D-04 NDo=     1
 LinEq1:  Iter=  9 NonCon=     1 RMS=2.11D-06 Max=9.98D-05 NDo=     1
 LinEq1:  Iter= 10 NonCon=     1 RMS=1.06D-06 Max=5.91D-05 NDo=     1
 LinEq1:  Iter= 11 NonCon=     1 RMS=4.93D-07 Max=1.79D-05 NDo=     1
 LinEq1:  Iter= 12 NonCon=     1 RMS=2.19D-07 Max=1.56D-05 NDo=     1
 LinEq1:  Iter= 13 NonCon=     1 RMS=9.10D-08 Max=4.41D-06 NDo=     1
 LinEq1:  Iter= 14 NonCon=     1 RMS=4.75D-08 Max=3.95D-06 NDo=     1
 LinEq1:  Iter= 15 NonCon=     1 RMS=1.67D-08 Max=1.06D-06 NDo=     1
 LinEq1:  Iter= 16 NonCon=     1 RMS=6.25D-09 Max=2.13D-07 NDo=     1
 LinEq1:  Iter= 17 NonCon=     1 RMS=2.27D-09 Max=8.54D-08 NDo=     1
 LinEq1:  Iter= 18 NonCon=     1 RMS=1.19D-09 Max=5.56D-08 NDo=     1
 LinEq1:  Iter= 19 NonCon=     1 RMS=3.70D-10 Max=1.80D-08 NDo=     1
 LinEq1:  Iter= 20 NonCon=     1 RMS=1.88D-10 Max=7.37D-09 NDo=     1
 LinEq1:  Iter= 21 NonCon=     1 RMS=7.00D-11 Max=4.22D-09 NDo=     1
 LinEq1:  Iter= 22 NonCon=     1 RMS=1.87D-11 Max=1.20D-09 NDo=     1
 LinEq1:  Iter= 23 NonCon=     0 RMS=9.20D-12 Max=4.79D-10 NDo=     1
 Linear equations converged to 1.000D-10 1.000D-09 after    23 iterations.
          There are     1 degrees of freedom in the 1st order CPHF.  IDoFFX=0 NUNeed=     1.
 End of Minotr F.D. properties file   721 does not exist.
 End of Minotr F.D. properties file   722 does not exist.
 End of Minotr F.D. properties file   788 does not exist.
   1 Symmetry operations used in ECPInt.
 ECPInt:  NShTT=   24753 NPrTT=   89657 LenC2=   21404 LenP2D=   52442.
 LDataN:  DoStor=T MaxTD1= 5 Len=  102
 Number of processors reduced to  30 by ecpmxn.
 Symmetrizing basis deriv contribution to polar:
 IMax=3 JMax=2 DiffMx= 0.00D+00
 G2DrvN: will do    49 centers at a time, making    1 passes.
 Calling FoFCou, ICntrl=  3107 FMM=F I1Cent=   0 AccDes= 0.00D+00.
 NEqPCM:  Using equilibrium solvation (IEInf=0, Eps=  24.8520, EpsInf=   1.8526)
 G2PCM: DoFxE=T DoFxN=T DoGrad=T DoDP/DQ/DG/TGxP=FFFF NFrqRd=   0 IEInf=0 SqF1=F DoCFld=F IF1Alg=4.
 G2DrvN: will do    49 centers at a time, making    1 passes.
 Calling FoFCou, ICntrl=  3107 FMM=F I1Cent=   0 AccDes= 0.00D+00.
 NEqPCM:  Using equilibrium solvation (IEInf=0, Eps=  24.8520, EpsInf=   1.8526)
 G2PCM: DoFxE=T DoFxN=F DoGrad=F DoDP/DQ/DG/TGxP=FFFF NFrqRd=   0 IEInf=0 SqF1=F DoCFld=F IF1Alg=4.
 G2DrvN: will do    49 centers at a time, making    1 passes.
 Calling FoFCou, ICntrl=  3107 FMM=F I1Cent=   0 AccDes= 0.00D+00.
 NEqPCM:  Using equilibrium solvation (IEInf=0, Eps=  24.8520, EpsInf=   1.8526)
 G2PCM: DoFxE=T DoFxN=F DoGrad=F DoDP/DQ/DG/TGxP=FFFF NFrqRd=   0 IEInf=0 SqF1=T DoCFld=F IF1Alg=4.
 End of G2Drv F.D. properties file   721 does not exist.
 End of G2Drv F.D. properties file   722 does not exist.
 End of G2Drv F.D. properties file   788 does not exist.
          IDoAtm=111111111111111111111111111111111111111111111111
 NEqPCM:  Using equilibrium solvation (IEInf=0, Eps=  24.8520, EpsInf=   1.8526)
          Differentiating once with respect to electric field.
                with respect to dipole field.
          Differentiating once with respect to nuclear coordinates.
 CalDSu exits because no D1Ps are significant.
          There are   147 degrees of freedom in the 1st order CPHF.  IDoFFX=6 NUNeed=   147.
    144 vectors produced by pass  0 Test12= 3.57D-14 1.00D-09 XBig12= 3.75D+02 1.69D+01.
 AX will form   144 AO Fock derivatives at one time.
    144 vectors produced by pass  1 Test12= 3.57D-14 1.00D-09 XBig12= 2.44D+01 6.19D-01.
    144 vectors produced by pass  2 Test12= 3.57D-14 1.00D-09 XBig12= 3.20D-01 9.81D-02.
    144 vectors produced by pass  3 Test12= 3.57D-14 1.00D-09 XBig12= 2.38D-03 6.93D-03.
    144 vectors produced by pass  4 Test12= 3.57D-14 1.00D-09 XBig12= 1.56D-05 4.02D-04.
    144 vectors produced by pass  5 Test12= 3.57D-14 1.00D-09 XBig12= 5.53D-08 2.28D-05.
     90 vectors produced by pass  6 Test12= 3.57D-14 1.00D-09 XBig12= 1.50D-10 1.23D-06.
      9 vectors produced by pass  7 Test12= 3.57D-14 1.00D-09 XBig12= 3.78D-13 6.61D-08.
      3 vectors produced by pass  8 Test12= 3.57D-14 1.00D-09 XBig12= 9.75D-16 3.15D-09.
 InvSVY:  IOpt=1 It=  1 EMax= 2.13D-14
 Solved reduced A of dimension   966 with   147 vectors.
 Isotropic polarizability for W=    0.000000      421.84 Bohr**3.
 End of Minotr F.D. properties file   721 does not exist.
 End of Minotr F.D. properties file   722 does not exist.
 End of Minotr F.D. properties file   788 does not exist.
 This link is doing   147 degrees of freedom
 Form MO integral derivatives with frozen-active canonical formalism.
 CISSec: MDV=   17179847957
 Doing TD-HF/TD-DFT second derivatives, IDoFFX=6 IOneXC=4 IRadAn=         1.
 Frozen orbitals handled with amplitudes over full window.
 CISAX will form   147 AO SS matrices at one time.
    144 vectors produced by pass  0 Test12= 5.17D-14 1.00D-09 XBig12= 7.82D+01 6.55D+00.
 AX will form   144 AO Fock derivatives at one time.
    144 vectors produced by pass  1 Test12= 5.17D-14 1.00D-09 XBig12= 2.44D+02 1.36D+01.
    144 vectors produced by pass  2 Test12= 5.17D-14 1.00D-09 XBig12= 2.23D+00 5.03D-01.
    144 vectors produced by pass  3 Test12= 5.17D-14 1.00D-09 XBig12= 6.23D-03 1.62D-02.
    144 vectors produced by pass  4 Test12= 5.17D-14 1.00D-09 XBig12= 3.95D-05 1.02D-03.
    124 vectors produced by pass  5 Test12= 5.17D-14 1.00D-09 XBig12= 2.06D-07 6.46D-05.
     68 vectors produced by pass  6 Test12= 5.17D-14 1.00D-09 XBig12= 9.12D-10 4.51D-06.
     19 vectors produced by pass  7 Test12= 5.17D-14 1.00D-09 XBig12= 4.08D-12 2.30D-07.
      4 vectors produced by pass  8 Test12= 5.17D-14 1.00D-09 XBig12= 2.11D-14 1.89D-08.
      1 vectors produced by pass  9 Test12= 5.17D-14 1.00D-09 XBig12= 1.26D-16 2.04D-09.
 InvSVY:  IOpt=1 It=  1 EMax= 1.62D-14
 Solved reduced A of dimension   936 with   147 vectors.
 Tx.T = -9.44D-05 for pert.     1
 Tx.T = -1.79D-05 for pert.    12
 Tx.T =  1.38D-05 for pert.     3
 Tx.T =  9.85D-06 for pert.    54
 Tx.T =  3.85D-06 for pert.    30
 Tx.T =  3.84D-06 for pert.    15
 Tx.T = -3.36D-06 for pert.    58
 Tx.T =  2.30D-06 for pert.    52
 Tx.T =  1.73D-06 for pert.     9
 Tx.T =  1.73D-06 for pert.     6
 SavDET:  read IOETrn=   770 NScale= 10 NData=  16 NLR=1 NState=    5 NDeriv=    0 LETran=     100.
 SavDET: write IOETrn=   770 NScale= 10 NData=  16 NLR=1 NState=    5 NDeriv=  147 LETran=    2452.
 TDDxLx will form   147 C1x/S1x matrices at one time.
 Interchange theorem applied.
 D1PCM: PCM CHGder 1st derivatives, ID1Alg=3 FixD1E=F DoIter=F DoCFld=F I1PDM=6.

 **********************************************************************

            Population analysis using the SCF density.

 **********************************************************************

 Orbital symmetries:
       Occupied  (A) (A) (A) (A) (A) (A) (A) (A) (A) (A) (A) (A)
                 (A) (A) (A) (A) (A) (A) (A) (A) (A) (A) (A) (A)
                 (A) (A) (A) (A) (A) (A) (A) (A) (A) (A) (A) (A)
                 (A) (A) (A) (A) (A) (A) (A) (A) (A) (A) (A) (A)
                 (A) (A) (A) (A) (A) (A) (A) (A) (A) (A) (A) (A)
                 (A) (A) (A) (A) (A) (A) (A) (A) (A) (A) (A) (A)
                 (A) (A) (A) (A) (A) (A) (A) (A) (A) (A) (A) (A)
                 (A) (A) (A) (A) (A) (A) (A) (A) (A) (A)
       Virtual   (A) (A) (A) (A) (A) (A) (A) (A) (A) (A) (A) (A)
                 (A) (A) (A) (A) (A) (A) (A) (A) (A) (A) (A) (A)
                 (A) (A) (A) (A) (A) (A) (A) (A) (A) (A) (A) (A)
                 (A) (A) (A) (A) (A) (A) (A) (A) (A) (A) (A) (A)
                 (A) (A) (A) (A) (A) (A) (A) (A) (A) (A) (A) (A)
                 (A) (A) (A) (A) (A) (A) (A) (A) (A) (A) (A) (A)
                 (A) (A) (A) (A) (A) (A) (A) (A) (A) (A) (A) (A)
                 (A) (A) (A) (A) (A) (A) (A) (A) (A) (A) (A) (A)
                 (A) (A) (A) (A) (A) (A) (A) (A) (A) (A) (A) (A)
                 (A) (A) (A) (A) (A) (A) (A) (A) (A) (A) (A) (A)
                 (A) (A) (A) (A) (A) (A) (A) (A) (A) (A) (A) (A)
                 (A) (A) (A) (A) (A) (A) (A) (A) (A) (A) (A) (A)
                 (A) (A) (A) (A) (A) (A) (A) (A) (A) (A) (A) (A)
                 (A) (A) (A) (A) (A) (A) (A) (A) (A) (A) (A) (A)
                 (A) (A) (A) (A) (A) (A) (A) (A) (A) (A) (A) (A)
                 (A) (A) (A) (A) (A) (A) (A) (A) (A) (A) (A) (A)
                 (A) (A) (A) (A) (A) (A) (A) (A) (A) (A) (A) (A)
                 (A) (A) (A) (A) (A) (A) (A) (A) (A) (A) (A) (A)
                 (A) (A) (A) (A) (A) (A) (A) (A) (A) (A) (A) (A)
                 (A) (A) (A) (A) (A) (A) (A) (A) (A) (A) (A) (A)
                 (A) (A) (A) (A) (A) (A) (A) (A) (A) (A) (A) (A)
                 (A) (A) (A) (A) (A) (A) (A) (A) (A) (A) (A) (A)
                 (A) (A) (A) (A) (A) (A) (A) (A) (A) (A) (A) (A)
                 (A) (A) (A) (A) (A) (A) (A) (A) (A) (A) (A) (A)
                 (A) (A) (A) (A) (A) (A) (A) (A) (A) (A) (A) (A)
                 (A) (A) (A) (A) (A) (A) (A) (A) (A) (A) (A) (A)
                 (A) (A) (A) (A) (A) (A) (A) (A) (A) (A) (A) (A)
                 (A) (A) (A) (A) (A) (A) (A) (A) (A) (A) (A) (A)
                 (A) (A) (A) (A) (A) (A) (A) (A) (A) (A) (A) (A)
                 (A) (A) (A) (A) (A) (A) (A) (A) (A) (A) (A) (A)
                 (A) (A) (A) (A) (A) (A) (A) (A) (A) (A) (A) (A)
                 (A) (A) (A) (A) (A) (A) (A) (A)
 The electronic state is 1-A.
 Alpha  occ. eigenvalues --  -25.19369 -25.19360 -19.63450 -14.78288 -14.78286
 Alpha  occ. eigenvalues --  -14.74789 -10.61525 -10.60650 -10.60647 -10.59895
 Alpha  occ. eigenvalues --  -10.59241 -10.59235 -10.57677 -10.57673 -10.55979
 Alpha  occ. eigenvalues --  -10.55961 -10.55754 -10.55234 -10.55234 -10.54944
 Alpha  occ. eigenvalues --  -10.54944 -10.54620 -10.54620 -10.54515 -10.54473
 Alpha  occ. eigenvalues --   -7.13171  -1.27709  -1.24217  -1.10914  -1.08421
 Alpha  occ. eigenvalues --   -1.06535  -1.01427  -0.94198  -0.89852  -0.88992
 Alpha  occ. eigenvalues --   -0.88147  -0.84980  -0.83292  -0.83232  -0.78693
 Alpha  occ. eigenvalues --   -0.78351  -0.78139  -0.74930  -0.70009  -0.68684
 Alpha  occ. eigenvalues --   -0.68321  -0.66053  -0.63294  -0.62669  -0.62061
 Alpha  occ. eigenvalues --   -0.60102  -0.59694  -0.59348  -0.58411  -0.57813
 Alpha  occ. eigenvalues --   -0.56408  -0.54938  -0.54093  -0.51788  -0.51565
 Alpha  occ. eigenvalues --   -0.50998  -0.49961  -0.49930  -0.49348  -0.48861
 Alpha  occ. eigenvalues --   -0.48473  -0.47844  -0.47710  -0.47579  -0.47270
 Alpha  occ. eigenvalues --   -0.46154  -0.46045  -0.45984  -0.45810  -0.45641
 Alpha  occ. eigenvalues --   -0.45559  -0.45303  -0.44288  -0.44025  -0.43629
 Alpha  occ. eigenvalues --   -0.43421  -0.42645  -0.42037  -0.41128  -0.40370
 Alpha  occ. eigenvalues --   -0.39738  -0.38429  -0.36639  -0.33578  -0.31361
 Alpha  occ. eigenvalues --   -0.30812  -0.29804  -0.25271  -0.23604
 Alpha virt. eigenvalues --   -0.07836   0.02676   0.04059   0.06637   0.08253
 Alpha virt. eigenvalues --    0.09198   0.10770   0.10848   0.12043   0.12660
 Alpha virt. eigenvalues --    0.13080   0.13234   0.13800   0.14121   0.14850
 Alpha virt. eigenvalues --    0.15208   0.15914   0.16893   0.17225   0.17913
 Alpha virt. eigenvalues --    0.18016   0.19327   0.20308   0.20470   0.20488
 Alpha virt. eigenvalues --    0.20752   0.20847   0.21072   0.21542   0.22624
 Alpha virt. eigenvalues --    0.22639   0.24587   0.25399   0.25920   0.26220
 Alpha virt. eigenvalues --    0.26294   0.26371   0.27782   0.28543   0.28725
 Alpha virt. eigenvalues --    0.30002   0.30123   0.31525   0.32646   0.33273
 Alpha virt. eigenvalues --    0.34346   0.35232   0.36431   0.37282   0.38375
 Alpha virt. eigenvalues --    0.38723   0.39583   0.40639   0.41762   0.42224
 Alpha virt. eigenvalues --    0.42289   0.43489   0.43512   0.44642   0.45461
 Alpha virt. eigenvalues --    0.45753   0.46678   0.47059   0.47704   0.47845
 Alpha virt. eigenvalues --    0.47968   0.48032   0.49850   0.49980   0.50603
 Alpha virt. eigenvalues --    0.51662   0.51803   0.53310   0.53488   0.54027
 Alpha virt. eigenvalues --    0.54689   0.55072   0.55184   0.56297   0.56593
 Alpha virt. eigenvalues --    0.58946   0.59366   0.60390   0.60461   0.61453
 Alpha virt. eigenvalues --    0.62117   0.62299   0.62437   0.63112   0.63880
 Alpha virt. eigenvalues --    0.65862   0.66445   0.67195   0.68036   0.68735
 Alpha virt. eigenvalues --    0.69033   0.69543   0.69863   0.70143   0.70335
 Alpha virt. eigenvalues --    0.71366   0.71509   0.71958   0.72180   0.72482
 Alpha virt. eigenvalues --    0.72537   0.73455   0.73776   0.73885   0.74331
 Alpha virt. eigenvalues --    0.74500   0.75332   0.75652   0.75935   0.76580
 Alpha virt. eigenvalues --    0.76713   0.76896   0.77478   0.77717   0.78763
 Alpha virt. eigenvalues --    0.78961   0.78988   0.79569   0.80272   0.80588
 Alpha virt. eigenvalues --    0.81209   0.82005   0.82233   0.82319   0.83511
 Alpha virt. eigenvalues --    0.84464   0.84639   0.84884   0.87090   0.88325
 Alpha virt. eigenvalues --    0.89356   0.89619   0.90121   0.91026   0.95005
 Alpha virt. eigenvalues --    0.95485   0.95823   0.96044   0.97378   0.97733
 Alpha virt. eigenvalues --    1.00457   1.01235   1.03965   1.04400   1.04929
 Alpha virt. eigenvalues --    1.06301   1.08887   1.09263   1.10451   1.11825
 Alpha virt. eigenvalues --    1.12008   1.12242   1.12790   1.15817   1.16687
 Alpha virt. eigenvalues --    1.17871   1.20524   1.21004   1.21450   1.22103
 Alpha virt. eigenvalues --    1.23186   1.23921   1.25461   1.27324   1.28359
 Alpha virt. eigenvalues --    1.28638   1.29237   1.29686   1.31460   1.31485
 Alpha virt. eigenvalues --    1.33090   1.33275   1.33986   1.35341   1.35737
 Alpha virt. eigenvalues --    1.37285   1.37755   1.37791   1.38331   1.39001
 Alpha virt. eigenvalues --    1.39642   1.41249   1.41264   1.43106   1.44380
 Alpha virt. eigenvalues --    1.45483   1.45746   1.47142   1.48264   1.51119
 Alpha virt. eigenvalues --    1.52323   1.53876   1.56034   1.56211   1.56982
 Alpha virt. eigenvalues --    1.58404   1.58932   1.59418   1.60414   1.60611
 Alpha virt. eigenvalues --    1.60943   1.62103   1.62241   1.63406   1.64337
 Alpha virt. eigenvalues --    1.64639   1.67973   1.70594   1.70660   1.70772
 Alpha virt. eigenvalues --    1.72219   1.72277   1.72602   1.72641   1.73667
 Alpha virt. eigenvalues --    1.75344   1.75421   1.77231   1.77768   1.78394
 Alpha virt. eigenvalues --    1.78692   1.78693   1.80084   1.80555   1.81432
 Alpha virt. eigenvalues --    1.81521   1.82071   1.82254   1.82343   1.82537
 Alpha virt. eigenvalues --    1.83819   1.84548   1.85206   1.85258   1.85307
 Alpha virt. eigenvalues --    1.85943   1.86425   1.86803   1.87296   1.88410
 Alpha virt. eigenvalues --    1.89843   1.90219   1.90342   1.90890   1.91068
 Alpha virt. eigenvalues --    1.92209   1.93446   1.94981   1.95773   1.97210
 Alpha virt. eigenvalues --    1.97434   1.98606   1.99575   2.00072   2.00875
 Alpha virt. eigenvalues --    2.01797   2.01964   2.02434   2.06174   2.06763
 Alpha virt. eigenvalues --    2.07688   2.07832   2.07943   2.09341   2.10956
 Alpha virt. eigenvalues --    2.11581   2.11898   2.14484   2.14738   2.15708
 Alpha virt. eigenvalues --    2.16685   2.16930   2.19084   2.19556   2.20791
 Alpha virt. eigenvalues --    2.22185   2.23168   2.24039   2.24515   2.25455
 Alpha virt. eigenvalues --    2.25636   2.26245   2.26362   2.27681   2.28006
 Alpha virt. eigenvalues --    2.28319   2.29285   2.29621   2.30462   2.30594
 Alpha virt. eigenvalues --    2.32347   2.36891   2.37694   2.38831   2.39663
 Alpha virt. eigenvalues --    2.40284   2.42884   2.42931   2.44322   2.45113
 Alpha virt. eigenvalues --    2.45144   2.46241   2.46814   2.47912   2.49950
 Alpha virt. eigenvalues --    2.50778   2.51774   2.53705   2.53920   2.58893
 Alpha virt. eigenvalues --    2.59813   2.62914   2.63614   2.65041   2.65230
 Alpha virt. eigenvalues --    2.66741   2.67238   2.70440   2.70546   2.70638
 Alpha virt. eigenvalues --    2.71688   2.72165   2.72656   2.73931   2.74960
 Alpha virt. eigenvalues --    2.75002   2.75098   2.75625   2.76032   2.78801
 Alpha virt. eigenvalues --    2.80529   2.80594   2.83653   2.85261   2.92056
 Alpha virt. eigenvalues --    2.93449   2.94061   2.94229   2.95710   2.95929
 Alpha virt. eigenvalues --    2.96352   2.97358   2.97582   2.98720   2.99854
 Alpha virt. eigenvalues --    3.02518   3.04371   3.06137   3.08575   3.08940
 Alpha virt. eigenvalues --    3.09183   3.14310   3.19143   3.19238   3.19802
 Alpha virt. eigenvalues --    3.20490   3.21696   3.23391   3.23788   3.24494
 Alpha virt. eigenvalues --    3.24667   3.28030   3.29676   3.32186   3.38647
 Alpha virt. eigenvalues --    3.42955   3.50218   3.51041   3.54020   3.59563
 Alpha virt. eigenvalues --    3.61387   3.66455   3.78887   3.80882   3.84367
          Condensed to atoms (all electrons):
               1          2          3          4          5          6
     1  C    5.176534   0.005789   0.322160   0.346200  -0.029539  -0.128094
     2  C    0.005789   5.176534   0.322159   0.015059  -0.001064  -0.000449
     3  C    0.322160   0.322159   5.389917  -0.094789   0.012647   0.014649
     4  C    0.346200   0.015059  -0.094789   5.226066   0.419546  -0.003811
     5  C   -0.029539  -0.001064   0.012647   0.419546   5.102522   0.414630
     6  C   -0.128094  -0.000449   0.014649  -0.003811   0.414630   4.976514
     7  H    0.015087   0.000003  -0.000374  -0.059372   0.456955  -0.056784
     8  C   -0.000449  -0.128094   0.014649   0.000015   0.000003   0.000003
     9  C    0.015059   0.346200  -0.094789  -0.000177   0.000001   0.000015
    10  C   -0.001064  -0.029540   0.012647   0.000001  -0.000000   0.000003
    11  H    0.000003   0.015087  -0.000374   0.000000  -0.000000   0.000000
    12  N    0.441453  -0.001804  -0.083627  -0.105380  -0.068564   0.418429
    13  N   -0.001804   0.441454  -0.083627  -0.000109  -0.000083  -0.000010
    14  B   -0.048181  -0.048181  -0.013441   0.002182   0.004906  -0.022125
    15  F   -0.003334  -0.003334   0.001548  -0.000036  -0.000088  -0.003055
    16  F   -0.003326  -0.003326   0.001540  -0.000035  -0.000091  -0.002905
    17  C   -0.095251  -0.095251   0.403064  -0.023167   0.001445  -0.000363
    18  C   -0.007360  -0.007360  -0.069351  -0.000554  -0.000039   0.000003
    19  C   -0.007563  -0.007563  -0.069186  -0.000589  -0.000037   0.000003
    20  C    0.000947   0.000947   0.009886  -0.000077  -0.000004  -0.000000
    21  H   -0.001606  -0.001606  -0.009662   0.000172   0.000026  -0.000009
    22  C    0.000884   0.000884   0.009833  -0.000072  -0.000004  -0.000000
    23  H   -0.001633  -0.001633  -0.009713   0.000171   0.000026  -0.000009
    24  C    0.000080   0.000080   0.001260  -0.000002   0.000000   0.000000
    25  H   -0.000019  -0.000019  -0.000245   0.000001   0.000000   0.000000
    26  H   -0.000013  -0.000013  -0.000250   0.000000   0.000000   0.000000
    27  N   -0.000000  -0.000000   0.000012  -0.000000  -0.000000   0.000000
    28  H   -0.000000  -0.000000   0.000000   0.000000  -0.000000   0.000000
    29  H   -0.000000  -0.000000   0.000000   0.000000  -0.000000   0.000000
    30  O   -0.000000  -0.000000   0.000000   0.000000   0.000000  -0.000000
    31  H   -0.000000   0.000000  -0.000000   0.000000   0.000000   0.000000
    32  H    0.000000  -0.000000  -0.000000   0.000000  -0.000000   0.000000
    33  C   -0.072873   0.000263  -0.010347   0.435274  -0.081472   0.014378
    34  H   -0.003718  -0.000223  -0.001279  -0.006478   0.003504  -0.000514
    35  H   -0.003725  -0.000227  -0.001311  -0.006515   0.003534  -0.000516
    36  H    0.009499   0.000020   0.000241  -0.011733  -0.011570   0.000256
    37  C    0.009451   0.000022  -0.000165   0.011761  -0.084083   0.409539
    38  H   -0.000054  -0.000009   0.000011  -0.000422   0.003684  -0.005962
    39  H   -0.000053  -0.000008   0.000011  -0.000426   0.003681  -0.005960
    40  H   -0.000180   0.000001   0.000007   0.000524  -0.014462  -0.000615
    41  C    0.000263  -0.072873  -0.010347  -0.000006   0.000000  -0.000000
    42  H   -0.000227  -0.003725  -0.001311  -0.000004   0.000000  -0.000000
    43  H   -0.000223  -0.003718  -0.001279  -0.000004   0.000000  -0.000000
    44  H    0.000020   0.009499   0.000241   0.000000  -0.000000   0.000000
    45  C    0.000022   0.009451  -0.000165  -0.000002   0.000000  -0.000006
    46  H   -0.000008  -0.000053   0.000011   0.000000   0.000000   0.000013
    47  H   -0.000009  -0.000054   0.000011   0.000000   0.000000   0.000013
    48  H    0.000001  -0.000180   0.000007   0.000000   0.000000  -0.000000
               7          8          9         10         11         12
     1  C    0.015087  -0.000449   0.015059  -0.001064   0.000003   0.441453
     2  C    0.000003  -0.128094   0.346200  -0.029540   0.015087  -0.001804
     3  C   -0.000374   0.014649  -0.094789   0.012647  -0.000374  -0.083627
     4  C   -0.059372   0.000015  -0.000177   0.000001   0.000000  -0.105380
     5  C    0.456955   0.000003   0.000001  -0.000000  -0.000000  -0.068564
     6  C   -0.056784   0.000003   0.000015   0.000003   0.000000   0.418429
     7  H    0.615455   0.000000   0.000000  -0.000000  -0.000000   0.005598
     8  C    0.000000   4.976514  -0.003811   0.414631  -0.056784  -0.000010
     9  C    0.000000  -0.003811   5.226066   0.419546  -0.059372  -0.000109
    10  C   -0.000000   0.414631   0.419546   5.102522   0.456954  -0.000083
    11  H   -0.000000  -0.056784  -0.059372   0.456954   0.615454   0.000003
    12  N    0.005598  -0.000010  -0.000109  -0.000083   0.000003   6.481700
    13  N    0.000003   0.418429  -0.105380  -0.068564   0.005598  -0.049555
    14  B    0.000191  -0.022125   0.002182   0.004906   0.000191   0.312020
    15  F    0.000000  -0.003055  -0.000036  -0.000088   0.000000  -0.034579
    16  F    0.000000  -0.002905  -0.000035  -0.000091   0.000000  -0.034716
    17  C    0.000008  -0.000363  -0.023167   0.001445   0.000008   0.003673
    18  C    0.000000   0.000003  -0.000554  -0.000039   0.000000  -0.000006
    19  C    0.000000   0.000003  -0.000589  -0.000037   0.000000  -0.000008
    20  C    0.000000  -0.000000  -0.000077  -0.000004   0.000000   0.000003
    21  H   -0.000000  -0.000009   0.000172   0.000026  -0.000000  -0.000071
    22  C    0.000000  -0.000000  -0.000072  -0.000004   0.000000   0.000003
    23  H   -0.000000  -0.000009   0.000171   0.000026  -0.000000  -0.000071
    24  C    0.000000   0.000000  -0.000002   0.000000   0.000000  -0.000000
    25  H   -0.000000   0.000000   0.000001   0.000000  -0.000000  -0.000000
    26  H   -0.000000   0.000000   0.000000   0.000000  -0.000000  -0.000000
    27  N   -0.000000   0.000000  -0.000000  -0.000000  -0.000000   0.000000
    28  H   -0.000000   0.000000   0.000000  -0.000000  -0.000000  -0.000000
    29  H    0.000000   0.000000   0.000000  -0.000000   0.000000  -0.000000
    30  O   -0.000000  -0.000000   0.000000   0.000000  -0.000000  -0.000000
    31  H   -0.000000   0.000000   0.000000  -0.000000   0.000000  -0.000000
    32  H    0.000000   0.000000   0.000000   0.000000  -0.000000  -0.000000
    33  C   -0.009846  -0.000000  -0.000006   0.000000  -0.000000   0.004570
    34  H    0.000150  -0.000000  -0.000004   0.000000   0.000000   0.000021
    35  H    0.000150  -0.000000  -0.000004   0.000000   0.000000   0.000022
    36  H    0.004352   0.000000   0.000000  -0.000000  -0.000000  -0.000101
    37  C   -0.009076  -0.000006  -0.000002   0.000000   0.000000  -0.067779
    38  H    0.000142   0.000013   0.000000   0.000000  -0.000000  -0.003822
    39  H    0.000144   0.000013   0.000000   0.000000  -0.000000  -0.003762
    40  H    0.003385  -0.000000   0.000000   0.000000  -0.000000   0.004837
    41  C   -0.000000   0.014378   0.435274  -0.081472  -0.009846  -0.000003
    42  H    0.000000  -0.000516  -0.006515   0.003534   0.000150   0.000001
    43  H    0.000000  -0.000514  -0.006478   0.003504   0.000150   0.000001
    44  H   -0.000000   0.000256  -0.011733  -0.011570   0.004352  -0.000000
    45  C    0.000000   0.409539   0.011761  -0.084083  -0.009076   0.000180
    46  H   -0.000000  -0.005960  -0.000426   0.003681   0.000144   0.000053
    47  H   -0.000000  -0.005962  -0.000422   0.003684   0.000142   0.000055
    48  H   -0.000000  -0.000615   0.000524  -0.014462   0.003385   0.000003
              13         14         15         16         17         18
     1  C   -0.001804  -0.048181  -0.003334  -0.003326  -0.095251  -0.007360
     2  C    0.441454  -0.048181  -0.003334  -0.003326  -0.095251  -0.007360
     3  C   -0.083627  -0.013441   0.001548   0.001540   0.403064  -0.069351
     4  C   -0.000109   0.002182  -0.000036  -0.000035  -0.023167  -0.000554
     5  C   -0.000083   0.004906  -0.000088  -0.000091   0.001445  -0.000039
     6  C   -0.000010  -0.022125  -0.003055  -0.002905  -0.000363   0.000003
     7  H    0.000003   0.000191   0.000000   0.000000   0.000008   0.000000
     8  C    0.418429  -0.022125  -0.003055  -0.002905  -0.000363   0.000003
     9  C   -0.105380   0.002182  -0.000036  -0.000035  -0.023167  -0.000554
    10  C   -0.068564   0.004906  -0.000088  -0.000091   0.001445  -0.000039
    11  H    0.005598   0.000191   0.000000   0.000000   0.000008   0.000000
    12  N   -0.049555   0.312020  -0.034579  -0.034716   0.003673  -0.000006
    13  N    6.481700   0.312020  -0.034579  -0.034716   0.003673  -0.000006
    14  B    0.312020   3.396264   0.432058   0.432365   0.002138   0.000026
    15  F   -0.034579   0.432058   8.943575  -0.027270   0.000004   0.000000
    16  F   -0.034716   0.432365  -0.027270   8.943703   0.000004  -0.000000
    17  C    0.003673   0.002138   0.000004   0.000004   5.654611   0.221047
    18  C   -0.000006   0.000026   0.000000  -0.000000   0.221047   5.083797
    19  C   -0.000008   0.000028  -0.000000   0.000000   0.225042   0.094140
    20  C    0.000003   0.000000  -0.000000   0.000000   0.102773   0.245829
    21  H   -0.000071  -0.000002  -0.000000   0.000000  -0.074168   0.461912
    22  C    0.000003   0.000000   0.000000  -0.000000   0.103655  -0.130588
    23  H   -0.000071  -0.000003   0.000000  -0.000000  -0.072803   0.013555
    24  C   -0.000000   0.000000   0.000000   0.000000  -0.201361   0.139342
    25  H   -0.000000  -0.000000   0.000000   0.000000   0.018127  -0.059402
    26  H   -0.000000  -0.000000   0.000000   0.000000   0.016675  -0.002693
    27  N    0.000000   0.000000   0.000000   0.000000  -0.000163   0.007695
    28  H   -0.000000  -0.000000   0.000000  -0.000000  -0.000012  -0.000557
    29  H   -0.000000  -0.000000   0.000000   0.000000  -0.000034   0.000545
    30  O   -0.000000   0.000000   0.000000   0.000000   0.000002   0.000282
    31  H   -0.000000  -0.000000  -0.000000  -0.000000  -0.000000  -0.000002
    32  H   -0.000000  -0.000000  -0.000000  -0.000000  -0.000000  -0.000002
    33  C   -0.000003   0.000315   0.000000   0.000000   0.003061  -0.004369
    34  H    0.000001   0.000006  -0.000000   0.000000   0.002756  -0.002806
    35  H    0.000001   0.000007   0.000000  -0.000000   0.002740   0.004014
    36  H   -0.000000   0.000002  -0.000000  -0.000000   0.000433   0.000173
    37  C    0.000180  -0.002549  -0.001358  -0.001622   0.000006  -0.000000
    38  H    0.000055   0.006556  -0.001561   0.007887  -0.000000  -0.000000
    39  H    0.000053   0.006429   0.007814  -0.001502  -0.000000   0.000000
    40  H    0.000003  -0.000103   0.000092   0.000088  -0.000000  -0.000000
    41  C    0.004570   0.000315   0.000000   0.000000   0.003061  -0.004369
    42  H    0.000022   0.000007   0.000000  -0.000000   0.002740   0.004014
    43  H    0.000021   0.000006  -0.000000   0.000000   0.002756  -0.002806
    44  H   -0.000101   0.000002  -0.000000  -0.000000   0.000433   0.000173
    45  C   -0.067778  -0.002549  -0.001358  -0.001622   0.000006  -0.000000
    46  H   -0.003762   0.006429   0.007814  -0.001502  -0.000000   0.000000
    47  H   -0.003822   0.006556  -0.001561   0.007887  -0.000000  -0.000000
    48  H    0.004837  -0.000103   0.000092   0.000088  -0.000000  -0.000000
              19         20         21         22         23         24
     1  C   -0.007563   0.000947  -0.001606   0.000884  -0.001633   0.000080
     2  C   -0.007563   0.000947  -0.001606   0.000884  -0.001633   0.000080
     3  C   -0.069186   0.009886  -0.009662   0.009833  -0.009713   0.001260
     4  C   -0.000589  -0.000077   0.000172  -0.000072   0.000171  -0.000002
     5  C   -0.000037  -0.000004   0.000026  -0.000004   0.000026   0.000000
     6  C    0.000003  -0.000000  -0.000009  -0.000000  -0.000009   0.000000
     7  H    0.000000   0.000000  -0.000000   0.000000  -0.000000   0.000000
     8  C    0.000003  -0.000000  -0.000009  -0.000000  -0.000009   0.000000
     9  C   -0.000589  -0.000077   0.000172  -0.000072   0.000171  -0.000002
    10  C   -0.000037  -0.000004   0.000026  -0.000004   0.000026   0.000000
    11  H    0.000000   0.000000  -0.000000   0.000000  -0.000000   0.000000
    12  N   -0.000008   0.000003  -0.000071   0.000003  -0.000071  -0.000000
    13  N   -0.000008   0.000003  -0.000071   0.000003  -0.000071  -0.000000
    14  B    0.000028   0.000000  -0.000002   0.000000  -0.000003   0.000000
    15  F   -0.000000  -0.000000  -0.000000   0.000000   0.000000   0.000000
    16  F    0.000000   0.000000   0.000000  -0.000000  -0.000000   0.000000
    17  C    0.225042   0.102773  -0.074168   0.103655  -0.072803  -0.201361
    18  C    0.094140   0.245829   0.461912  -0.130588   0.013555   0.139342
    19  C    5.075705  -0.133132   0.013503   0.256614   0.462228   0.148538
    20  C   -0.133132   5.431543  -0.066786   0.028847  -0.002285   0.139069
    21  H    0.013503  -0.066786   0.645863  -0.002316  -0.000166   0.016084
    22  C    0.256614   0.028847  -0.002316   5.381072  -0.068529   0.151963
    23  H    0.462228  -0.002285  -0.000166  -0.068529   0.644303   0.015526
    24  C    0.148538   0.139069   0.016084   0.151963   0.015526   5.234973
    25  H   -0.003038   0.445526  -0.013531   0.014744   0.000013  -0.093449
    26  H   -0.070866   0.014703   0.000017   0.464678  -0.012219  -0.076138
    27  N    0.007852  -0.118183  -0.000105  -0.110002  -0.000112   0.511700
    28  H    0.000600   0.013115   0.000011  -0.027814  -0.000022  -0.003271
    29  H   -0.000338  -0.025791  -0.000015   0.010663   0.000007  -0.003128
    30  O   -0.000001  -0.003053  -0.000012  -0.000027  -0.000000  -0.004109
    31  H   -0.000000  -0.000091   0.000000   0.000007   0.000000   0.000173
    32  H   -0.000000  -0.000091   0.000000   0.000007   0.000000   0.000173
    33  C   -0.004328  -0.000610  -0.000477  -0.000594  -0.000489  -0.000289
    34  H    0.004012   0.000440   0.000001   0.002314   0.000275  -0.000049
    35  H   -0.002849   0.002376   0.000269   0.000438   0.000002  -0.000013
    36  H    0.000175  -0.000038   0.000004  -0.000038   0.000004  -0.000007
    37  C   -0.000000   0.000000  -0.000000   0.000000  -0.000000  -0.000000
    38  H    0.000000  -0.000000   0.000000  -0.000000  -0.000000   0.000000
    39  H   -0.000000  -0.000000  -0.000000  -0.000000   0.000000   0.000000
    40  H   -0.000000  -0.000000   0.000000  -0.000000   0.000000  -0.000000
    41  C   -0.004328  -0.000610  -0.000477  -0.000594  -0.000489  -0.000289
    42  H   -0.002849   0.002376   0.000269   0.000438   0.000002  -0.000013
    43  H    0.004012   0.000440   0.000001   0.002314   0.000275  -0.000049
    44  H    0.000175  -0.000038   0.000004  -0.000038   0.000004  -0.000007
    45  C   -0.000000   0.000000  -0.000000   0.000000  -0.000000  -0.000000
    46  H   -0.000000  -0.000000  -0.000000  -0.000000   0.000000   0.000000
    47  H    0.000000  -0.000000   0.000000  -0.000000  -0.000000   0.000000
    48  H   -0.000000  -0.000000   0.000000  -0.000000   0.000000  -0.000000
              25         26         27         28         29         30
     1  C   -0.000019  -0.000013  -0.000000  -0.000000  -0.000000  -0.000000
     2  C   -0.000019  -0.000013  -0.000000  -0.000000  -0.000000  -0.000000
     3  C   -0.000245  -0.000250   0.000012   0.000000   0.000000   0.000000
     4  C    0.000001   0.000000  -0.000000   0.000000   0.000000   0.000000
     5  C    0.000000   0.000000  -0.000000  -0.000000  -0.000000   0.000000
     6  C    0.000000   0.000000   0.000000   0.000000   0.000000  -0.000000
     7  H   -0.000000  -0.000000  -0.000000  -0.000000   0.000000  -0.000000
     8  C    0.000000   0.000000   0.000000   0.000000   0.000000  -0.000000
     9  C    0.000001   0.000000  -0.000000   0.000000   0.000000   0.000000
    10  C    0.000000   0.000000  -0.000000  -0.000000  -0.000000   0.000000
    11  H   -0.000000  -0.000000  -0.000000  -0.000000   0.000000  -0.000000
    12  N   -0.000000  -0.000000   0.000000  -0.000000  -0.000000  -0.000000
    13  N   -0.000000  -0.000000   0.000000  -0.000000  -0.000000  -0.000000
    14  B   -0.000000  -0.000000   0.000000  -0.000000  -0.000000   0.000000
    15  F    0.000000   0.000000   0.000000   0.000000   0.000000   0.000000
    16  F    0.000000   0.000000   0.000000  -0.000000   0.000000   0.000000
    17  C    0.018127   0.016675  -0.000163  -0.000012  -0.000034   0.000002
    18  C   -0.059402  -0.002693   0.007695  -0.000557   0.000545   0.000282
    19  C   -0.003038  -0.070866   0.007852   0.000600  -0.000338  -0.000001
    20  C    0.445526   0.014703  -0.118183   0.013115  -0.025791  -0.003053
    21  H   -0.013531   0.000017  -0.000105   0.000011  -0.000015  -0.000012
    22  C    0.014744   0.464678  -0.110002  -0.027814   0.010663  -0.000027
    23  H    0.000013  -0.012219  -0.000112  -0.000022   0.000007  -0.000000
    24  C   -0.093449  -0.076138   0.511700  -0.003271  -0.003128  -0.004109
    25  H    0.677509  -0.000082  -0.013437  -0.000050   0.002561   0.021984
[...]
 0,0.03450040,-0.09887068,-0.00355258,-0.00307872,-0.00131608,0.0002918
 6,-0.01342918,0.01074044,0.00134758,0.00007904,0.00030218,0.00000015,0
 .00025606,-0.00043034,-0.00003712,0.03887458,-0.00608814,-0.00388254,-
 0.00082204,0.00078534,0.00008278,0.00086157,-0.00266637,-0.00041370,0.
 00096025,-0.00275242,0.00017203,-0.00003390,-0.00046873,-0.00000214,0.
 00007083,0.00005658,0.00002446,0.00005953,0.00005472,-0.00003607,-0.00
 002813,0.00000080,-0.00001254,0.00000260,-0.00000690,0.00001228,-0.000
 02231,0.00000054,0.00001772,0.00000054,-0.00000678,-0.00001258,-0.0000
 0905,-0.00000428,-0.00000107,0.00000136,-0.00000596,0.00000336,0.00000
 100,-0.00000561,-0.00000375,0.00003197,-0.00000651,0.00000099,-0.00000
 247,0.00000095,0.00000677,-0.00000936,0.00000114,-0.00001648,0.0000029
 1,0.00000011,0.00000682,0.00000070,0.00000076,0.00000036,0.00000082,-0
 .00000091,0.00000047,-0.00002022,-0.00004278,0.00000111,-0.00003428,0.
 00002137,0.00001453,-0.00003636,0.00002290,-0.00000629,-0.00001117,0.0
 0001320,0.00000149,-0.00003731,-0.00011171,0.00000167,0.00006770,0.000
 03272,-0.00003653,0.00007426,0.00003155,0.00002353,0.00001223,-0.00000
 372,-0.00000058,-0.00041624,0.00087877,0.00003702,-0.00021726,-0.00001
 656,0.00002297,-0.00021445,-0.00001486,0.00002111,0.00009589,0.0000057
 1,-0.00000914,0.01269200,0.59026922,-0.00002810,0.00000864,-0.00004240
 ,0.00015444,-0.00021710,0.00207188,-0.00009557,0.00018547,0.00026552,0
 .00000383,-0.00002532,0.00007869,0.00002807,0.00000108,-0.00002456,-0.
 00002055,0.00002156,-0.00001730,-0.00000083,-0.00000085,-0.00000754,0.
 01800198,-0.00369552,-0.06753605,0.00059455,0.00040489,0.00528579,0.00
 264703,-0.00073816,0.00541772,-0.00048792,-0.00005272,-0.00345969,0.00
 002858,0.00000758,0.00018885,0.00049821,-0.00075180,-0.00034393,0.0000
 4485,0.00002836,0.00097352,-0.00088798,0.00118096,-0.00000316,0.001062
 59,-0.00145534,-0.00012283,0.00010534,0.00001394,0.00044727,-0.0001908
 0,-0.00018310,-0.00003583,0.00012755,0.00017226,-0.00003188,0.00004914
 ,0.00003451,-0.00004070,-0.00000831,-0.00000211,0.00000012,-0.00001882
 ,-0.00003429,-0.00001720,0.00000908,0.00000201,0.,-0.00001119,0.000000
 16,0.00010506,0.00000104,0.00002966,-0.00000076,-0.00000287,-0.0000278
 9,0.00000082,0.00001497,-0.00000067,-0.00002618,0.00000129,-0.00000407
 ,0.00000056,-0.00000071,0.00000412,0.00000054,0.00000090,0.00000023,-0
 .00000069,-0.00000046,0.00000019,-0.00000012,-0.00000028,-0.00000004,0
 .00000010,0.00001717,-0.00000163,0.00019237,-0.00001121,0.00008267,-0.
 00006879,-0.00000257,-0.00007929,-0.00006933,-0.00000674,0.00000041,-0
 .00005567,-0.00000910,-0.00000167,-0.00011404,0.00002792,0.00002396,-0
 .00001462,-0.00002916,-0.00002211,-0.00001005,-0.00000080,0.00000006,-
 0.00001819,0.00010664,-0.00003522,0.00097428,0.00027962,0.00017811,0.0
 0000153,-0.00026757,-0.00018660,0.00006087,-0.00001791,-0.00000284,-0.
 00012238,0.00185039,-0.00110483,0.54115384,-0.00007226,0.00073522,-0.0
 0000947,-0.00242283,-0.00019867,0.00050539,0.00004154,-0.00065686,-0.0
 0000487,-0.00002565,-0.00054525,0.00001770,0.00053669,-0.00003017,-0.0
 0005661,-0.00009572,0.00057104,0.00003471,0.00001270,0.00003074,-0.000
 00566,-0.01991451,-0.01199064,-0.02101543,-0.00108593,0.00075970,0.001
 11518,-0.00057205,0.00230237,-0.00054067,0.00003316,-0.00001194,-0.000
 43067,0.00006537,-0.00019650,0.00017276,0.00343153,-0.00128342,0.00045
 202,-0.00164871,0.00036688,-0.00114774,0.00095113,-0.00122093,0.000447
 60,0.00028602,0.00007070,0.00001381,0.00029671,-0.00002815,0.00005140,
 -0.00012343,-0.00005284,0.00001004,-0.00005051,0.00002952,-0.00001715,
 -0.00000298,0.00000344,-0.00000773,0.00000674,-0.00000361,0.00000511,-
 0.00001995,-0.00000823,-0.00000044,0.00000745,-0.00000264,-0.00000491,
 0.00006791,-0.00000230,0.00001523,-0.00000949,0.00000939,0.00000221,-0
 .00001244,-0.00000244,0.00000025,-0.00008745,-0.00000436,-0.00000305,0
 .00000739,-0.00000035,-0.00001656,0.00002056,0.00000110,0.00003305,-0.
 00001095,-0.00000005,-0.00001197,0.00000119,-0.00000131,-0.00000029,0.
 00000125,0.00000143,-0.00000025,-0.00000600,-0.00005223,0.00003730,-0.
 00004587,0.00004053,-0.00000042,-0.00004392,0.00000856,-0.00001719,-0.
 00002071,0.00002116,-0.00000907,-0.00001211,-0.00007426,-0.00002916,0.
 00006208,0.00003258,-0.00001815,0.00006344,0.00002858,0.00001336,0.000
 01885,0.00001040,-0.00000034,0.00002077,0.00024216,0.00027638,-0.00005
 301,0.00001332,-0.00000414,-0.00018971,-0.00006595,0.00003094,-0.00001
 606,-0.00002997,-0.00002338,-0.12264502,-0.05248029,-0.11218115,0.1354
 6994,0.00001894,-0.00014121,-0.00002914,0.00122343,-0.00032850,-0.0001
 5756,-0.00027837,0.00059971,0.00003869,-0.00000416,0.00013159,-0.00002
 131,-0.00014429,0.00002625,0.00001302,-0.00001076,-0.00023644,-0.00001
 581,-0.00000624,-0.00000975,0.00000309,0.00360106,0.00316447,0.0078073
 3,0.00035419,-0.00030292,0.00011267,-0.00016157,0.00044941,-0.00018514
 ,0.00002823,0.00004976,-0.00017961,-0.00016492,0.00019514,-0.00016354,
 -0.00125323,0.00004115,-0.00004681,0.00141623,-0.00005352,0.00090340,-
 0.00061148,-0.00000023,-0.00085497,-0.00031462,0.00022015,-0.00007821,
 0.00003197,0.00003793,-0.00007749,-0.00000292,0.00002868,-0.00002007,-
 0.00004393,-0.00003783,0.00003916,0.00002105,0.00000115,-0.00000327,-0
 .00000007,0.00000121,-0.00000448,0.00003740,0.00000644,0.00000879,-0.0
 0000225,0.00000204,0.00000554,-0.00004220,0.00000054,-0.00001661,0.000
 00098,-0.00000487,-0.00000188,0.00000179,0.00000380,0.00000205,0.00003
 734,0.00000278,0.00000231,-0.00000179,0.00000043,0.00000365,-0.0000033
 5,-0.00000076,-0.00000605,0.00000116,-0.00000004,0.00000179,-0.0000001
 4,0.00000019,-0.00000013,-0.00000012,-0.00000022,-0.00000021,-0.000004
 67,0.00001377,-0.00002467,0.00001157,-0.00001434,0.00000535,0.00001204
 ,0.00000765,0.00001148,0.00000297,-0.00000430,0.00000832,0.00001710,0.
 00003155,0.00002211,-0.00002911,-0.00001796,0.00001476,-0.00002858,-0.
 00002213,-0.00001303,-0.00000510,0.00000213,-0.00000031,-0.00005053,-0
 .00001557,-0.00010849,-0.00000308,-0.00001603,0.00000948,0.00003552,0.
 00001682,-0.00000150,0.00000029,-0.00000031,0.00000520,-0.05193751,-0.
 08102166,-0.07534938,0.05748622,0.08058673,-0.00006770,0.00010629,0.00
 000455,-0.00034184,-0.00007898,-0.00015549,-0.00005363,-0.00000741,0.0
 0004899,0.00000245,-0.00011736,-0.00001822,0.00011027,-0.00002422,-0.0
 0000200,-0.00001951,0.00013339,0.00000609,0.00000333,-0.00000122,-0.00
 000121,0.00279161,0.00360331,0.00709204,-0.00000542,0.00037126,-0.0003
 5673,0.00119325,0.00007555,-0.00066773,0.00001983,0.00000059,0.0001567
 2,0.00010648,-0.00013709,0.00006669,-0.00032536,-0.00012130,0.00040265
 ,-0.00088288,0.00047621,-0.00048916,0.00063166,-0.00131772,-0.00022487
 ,0.00008539,-0.00014334,0.00022079,0.00004450,0.00001220,-0.00001806,-
 0.00001605,-0.00000029,-0.00000465,-0.00001995,-0.00000540,0.00000968,
 0.00000751,-0.00000043,-0.00000339,0.00000127,-0.00000041,-0.00000078,
 0.00000897,0.00000165,0.00000272,0.00000101,-0.00000083,0.00000093,-0.
 00000508,-0.00000089,-0.00000145,-0.00000097,-0.00000041,-0.00000038,-
 0.00000102,0.00000063,0.00000091,0.00000070,0.00000065,-0.00000061,0.0
 0000047,-0.00000033,-0.00000073,0.00000185,-0.00000047,0.00000269,-0.0
 0000170,0.00000068,-0.00000113,0.00000028,-0.00000041,-0.00000016,0.00
 000052,-0.00000023,0.,-0.00000804,-0.00000627,-0.00000196,-0.00000102,
 0.00000236,0.00000089,-0.00000041,0.00000461,0.00000201,-0.00000063,0.
 00000104,0.00000174,-0.00000116,-0.00002353,-0.00001005,0.00000447,0.0
 0000898,-0.00000545,0.00001336,0.00001303,0.00001490,0.00000431,-0.000
 00490,0.00000407,0.00004212,-0.00001633,0.00001960,0.00000117,-0.00000
 490,-0.00000327,0.00000562,0.00000139,-0.00000649,-0.00000115,0.000000
 04,0.00000207,-0.11131402,-0.07513917,-0.20027263,0.11977333,0.0816754
 9,0.21184022,-0.00005327,0.00069928,0.00002312,-0.00237020,-0.00017816
 ,-0.00006271,0.00005813,-0.00064780,0.00000068,-0.00002975,-0.00051020
 ,-0.00001630,0.00050494,-0.00002472,-0.00004494,-0.00009341,0.00053276
 ,-0.00001434,0.00001261,0.00003042,0.00000305,-0.01532816,-0.01258474,
 0.02556628,-0.00128691,0.00066704,-0.00093907,-0.00071906,0.00225055,0
 .00056810,0.00011935,-0.00001079,0.00043884,0.00000987,-0.00016437,-0.
 00016923,0.00332743,-0.00123352,-0.00106920,-0.00118341,0.00025372,0.0
 0128555,0.00026857,0.00008538,-0.00003523,0.00046835,-0.00091893,-0.00
 057208,0.00026513,-0.00003091,-0.00010335,-0.00004090,0.00002966,0.000
 02783,-0.00011353,-0.00005164,0.00000775,-0.00002190,-0.00000846,0.000
 00535,0.00000784,-0.00000223,0.00000293,-0.00000629,0.00000369,0.00000
 450,0.00000535,-0.00000349,-0.00000654,0.00006738,-0.00000222,-0.00002
 644,-0.00001026,-0.00000248,0.00000282,-0.00001070,0.00000919,0.000000
 52,-0.00008993,-0.00000405,0.00000463,0.00000708,0.00000121,-0.0000156
 8,0.00002114,-0.00000030,0.00003471,-0.00000955,-0.00000063,-0.0000136
 2,0.00000036,-0.00000103,0.00000033,0.00000010,0.00000161,0.00000022,-
 0.00001083,-0.00004993,-0.00003517,-0.00003898,0.00000644,0.00002601,-
 0.00004405,0.00003984,0.00000987,-0.00001789,0.00002055,0.00001319,-0.
 00000711,-0.00006770,0.00002792,0.00005647,0.00002617,-0.00002112,0.00
 006208,0.00002911,0.00000447,0.00001756,0.00001119,-0.00000211,-0.0000
 4055,0.00024123,-0.00026656,-0.00019165,-0.00006540,0.00000652,-0.0000
 5042,0.00001502,0.00001428,-0.00001068,-0.00002942,0.00002610,-0.08225
 287,-0.03669826,0.08815251,0.00625878,0.00676657,-0.01376239,0.0920795
 0,0.00002295,-0.00014779,0.00002297,0.00123508,-0.00034084,-0.00009451
 ,-0.00028215,0.00061074,0.00000945,0.00000090,0.00013556,0.00002200,-0
 .00014881,0.00002605,0.00001676,-0.00000711,-0.00024169,0.00001755,-0.
 00000686,-0.00001030,-0.00000195,0.00193861,0.00320674,-0.00836370,0.0
 0033160,-0.00029360,-0.00017235,-0.00009676,0.00044311,0.00021364,0.00
 006363,0.00004939,0.00016772,-0.00012579,0.00019441,0.00020772,-0.0012
 4997,0.00005055,0.00033406,0.00122036,-0.00005936,-0.00118246,-0.00029
 260,0.00028516,0.00017854,-0.00039444,0.00025631,0.00059684,0.00004441
 ,0.00003791,0.00007359,-0.00005349,-0.00003902,-0.00003119,0.00000214,
 0.00003033,0.00002261,0.00003812,0.00000647,-0.00001780,-0.00000339,0.
 00000218,-0.00000505,0.00002266,0.00000091,0.00000064,0.00000055,0.000
 00129,0.00000423,-0.00004322,0.00000077,0.00002651,0.00000126,0.000003
 94,-0.00000254,0.00000159,-0.00000505,0.00000152,0.00004199,0.00000256
 ,-0.00000846,-0.00000156,-0.00000076,0.00000479,-0.00000427,0.00000052
 ,-0.00000622,0.00000250,-0.00000037,0.00000139,-0.00000058,0.00000052,
 0.00000009,-0.00000072,-0.00000011,0.00000004,-0.00000004,0.00001451,0
 .00002649,0.00001039,0.00000841,-0.00001455,0.00001108,-0.00001543,-0.
 00000807,0.00000146,-0.00000468,-0.00000921,0.00001339,0.00003272,-0.0
 0002396,-0.00002617,-0.00002178,0.00001734,-0.00003258,-0.00001796,-0.
 00000898,-0.00000520,0.00000195,0.00000097,-0.00002837,-0.00001746,0.0
 0011823,0.00003677,0.00001755,-0.00000604,-0.00000371,-0.00001647,-0.0
 0000951,-0.00000052,0.00000021,-0.00000555,-0.03619731,-0.08155592,0.0
 8470396,0.00476700,0.00447141,-0.01039095,0.04040666,0.08080465,0.0000
 7720,-0.00024807,-0.00001299,0.00078693,0.00012536,-0.00020855,0.00005
 480,0.00013215,0.00004008,0.00000004,0.00022011,-0.00001466,-0.0002100
 5,0.00002851,0.00002864,0.00003896,-0.00023680,0.00000410,-0.00000605,
 -0.00000519,-0.00000095,0.00174886,-0.00110943,0.00242584,0.00019468,-
 0.00051855,-0.00016841,-0.00119106,-0.00053024,-0.00054559,-0.00001023
 ,0.00000253,0.00007249,-0.00008818,0.00016564,0.00011694,-0.00029245,0
 .00039144,0.00055274,0.00098636,-0.00053171,-0.00087153,-0.00007839,0.
 00020517,0.00026653,-0.00077060,0.00111544,0.00017093,-0.00010467,-0.0
 0000602,0.00001026,0.00003217,0.00000007,0.00000124,0.00003762,0.00001
 042,-0.00000974,-0.00000465,0.,0.00000333,-0.00000267,0.00000147,0.000
 00028,-0.00000643,-0.00000030,-0.00000284,-0.00000240,0.00000105,0.000
 00094,-0.00000926,0.00000138,0.00000224,0.00000298,-0.00000025,0.00000
 002,0.00000332,-0.00000140,-0.00000080,0.00001812,0.00000025,0.0000005
 1,-0.00000213,0.00000021,0.00000413,-0.00000636,0.00000041,-0.00001017
 ,0.00000380,-0.00000059,0.00000406,-0.00000035,0.00000059,0.00000010,-
 0.00000056,-0.00000005,-0.00000006,0.00000949,0.00001666,0.00000318,0.
 00000897,-0.00000622,-0.00000336,0.00001024,-0.00001023,-0.00000106,0.
 00000472,-0.00000535,-0.00000089,0.00000075,0.00003653,-0.00001462,-0.
 00002112,-0.00001734,0.00002115,-0.00001815,-0.00001476,-0.00000545,-0
 .00000704,0.00000242,0.00000507,-0.00003029,-0.00003272,0.00008174,0.0
 0003186,0.00001179,-0.00000644,0.00000879,0.00000231,-0.00000611,0.000
 00395,0.00000615,-0.00000327,0.08736128,0.08455770,-0.23986449,0.00872
 290,0.00926511,-0.01894471,-0.09543552,-0.09166282,0.25432320,0.000068
 87,0.00007880,-0.00000502,0.00017343,0.00156463,0.00002804,-0.00059175
 ,-0.00021633,0.00004835,0.00000083,-0.00009838,0.00000037,0.00011101,0
 .00003720,-0.00001040,-0.00006706,0.00009125,0.00000637,0.00000018,0.0
 0001601,-0.00000026,-0.00044401,0.03338738,-0.00016846,0.00014352,0.00
 011165,-0.00003054,0.00111445,-0.00040551,-0.00012152,-0.00007388,-0.0
 0034953,0.00002311,0.00008353,0.00016785,0.00000425,-0.00636574,0.0005
 8722,0.00075498,-0.00119431,-0.00079610,0.00003063,0.00047599,-0.00046
 863,0.00000912,0.00041536,-0.00029034,-0.00008656,0.00013607,0.0001180
 1,-0.00000719,-0.00004576,-0.00002657,0.00001679,-0.00004116,-0.000020
 74,-0.00001102,-0.00001895,-0.00000366,0.00001334,0.00000394,0.0000000
 8,0.00000118,-0.00002354,-0.00000354,-0.00001156,0.00000400,-0.0000002
 7,-0.00000221,0.00007189,-0.00000072,-0.00000450,-0.00000593,0.0000049
 6,0.00000155,-0.00000700,0.00000414,0.00000024,-0.00008776,-0.00000172
 ,0.00000202,0.00000574,0.00000023,-0.00001361,0.00001656,0.00000025,0.
 00002751,-0.00000740,-0.00000065,-0.00000989,0.00000044,-0.00000084,-0
 .00000008,0.00000022,0.00000150,-0.00000025,0.00000567,-0.00001720,0.0
 0000161,-0.00001704,0.00000687,0.00000419,-0.00001759,0.00000544,-0.00
 000203,-0.00000784,0.00000937,0.00000015,-0.00000818,-0.00001223,-0.00
 000080,0.00001756,0.00000520,-0.00000704,0.00001885,0.00000510,0.00000
 431,0.00001055,0.00000619,-0.00000078,0.00007686,-0.00007467,-0.000010
 50,-0.00002523,-0.00000804,-0.00000393,-0.00002201,-0.00000906,0.00000
 730,-0.00004117,-0.00002128,0.00000425,-0.04882660,0.02143126,0.000472
 91,0.00152607,-0.01600108,0.00197420,0.00041424,-0.01120947,-0.0018501
 8,0.05304407,-0.00010100,-0.00020888,0.00000965,-0.00014104,-0.0004899
 2,0.00001190,0.00015354,0.00034672,-0.00001509,0.00000975,0.00011703,-
 0.00000081,-0.00010491,-0.00003290,0.00001033,0.00005643,-0.00003794,-
 0.00000506,0.00000038,-0.00001498,-0.00000004,-0.00179989,-0.00656669,
 0.00019674,0.00011999,0.00003958,-0.00000845,-0.00104539,0.00114035,0.
 00010095,0.00035729,0.00008652,-0.00003883,0.00011530,-0.00018103,-0.0
 0001229,0.00129250,0.00109955,-0.00013383,-0.00021220,0.00088300,0.000
 01727,0.00004902,-0.00044753,-0.00012926,0.00008611,-0.00044942,0.0001
 1756,-0.00007489,-0.00003902,0.00000620,0.00002578,0.00000127,-0.00001
 626,0.00002755,0.00000089,0.00001185,0.00001595,0.00000352,-0.00000434
 ,-0.00000340,-0.00000035,-0.00000203,0.00001682,0.00000351,0.00000192,
 -0.00000296,-0.00000031,0.00000279,-0.00004374,-0.00000012,0.00000377,
 0.00000446,-0.00000077,-0.00000120,0.00000526,-0.00000073,-0.00000012,
 0.00005112,0.00000132,-0.00000140,-0.00000310,-0.00000036,0.00000735,-
 0.00000904,-0.00000037,-0.00001494,0.00000473,0.00000052,0.00000513,-0
 .00000058,0.00000027,0.00000003,-0.00000042,-0.00000077,0.00000018,0.0
 0000031,0.00001442,-0.00000014,0.00001677,-0.00000800,-0.00000492,0.00
 001737,-0.00000833,0.00000133,0.00000889,-0.00000934,-0.00000088,-0.00
 000445,-0.00000372,-0.00000006,-0.00001119,0.00000195,-0.00000242,-0.0
 0001040,0.00000213,0.00000490,-0.00000619,-0.00001131,0.00000071,-0.00
 002453,-0.00000512,0.00000186,0.00003053,0.00000535,0.00000086,0.00002
 995,0.00000509,-0.00000707,0.00001414,0.00001132,-0.00000139,0.0261180
 6,-0.32296486,-0.00311225,0.00141130,-0.00786429,0.00105543,0.00116408
 ,-0.00790827,-0.00136283,-0.02760403,0.34349103,-0.00000620,-0.0000071
 5,0.00001510,0.00002794,-0.00015733,0.00043387,0.00004824,0.00002275,-
 0.00010150,0.00000093,0.00000865,0.00000804,-0.00000986,-0.00000383,0.
 00000571,0.00000596,-0.00000789,-0.00000092,-0.00000030,-0.00000163,-0
 .00000285,-0.00023186,-0.00332898,-0.00253442,-0.00003194,-0.00001107,
 -0.00016168,-0.00011930,0.00004042,-0.00004266,0.00002170,0.00003531,0
 .00011848,0.00000706,-0.00001772,0.00013631,0.00075247,-0.00005657,0.0
 0114832,0.00001711,0.00007184,-0.00092077,0.00028637,-0.00080579,0.000
 05279,-0.00037093,0.00091760,0.00010272,-0.00000847,-0.00001162,0.0000
 4686,-0.00002588,-0.00002870,-0.00000539,0.00003166,0.00003347,-0.0000
 0691,0.00000995,0.00000101,-0.00000997,-0.00000231,0.00000117,-0.00000
 035,-0.00000547,-0.00000041,-0.00000449,0.00000140,-0.00000107,-0.0000
 0052,-0.00000692,0.00000015,0.00002053,0.00000028,0.00000354,-0.000000
 32,0.00000093,-0.00000444,-0.00000024,0.00000999,0.00000009,-0.0000054
 5,-0.00000041,-0.00000057,0.00000194,-0.00000177,0.00000054,-0.0000022
 0,0.00000141,-0.00000020,0.00000035,-0.00000032,0.00000027,0.00000022,
 -0.00000044,0.,0.00000025,0.00000156,0.00000175,0.00002355,0.00000072,
 0.00000986,-0.00000897,0.00000124,-0.00001095,-0.00000833,0.00000004,-
 0.00000096,-0.00000723,-0.00000074,0.00000058,-0.00001819,-0.00000211,
 -0.00000097,0.00000507,-0.00000034,0.00000031,0.00000407,-0.00000078,-
 0.00000071,0.00000250,-0.00001125,0.00000754,-0.00003092,-0.00001024,0
 .00000794,-0.00000693,0.00001319,-0.00000638,-0.00001041,0.00000420,0.
 00000214,0.00000112,0.00050260,-0.00264628,-0.04489836,0.00382583,-0.0
 2259914,0.00129037,-0.00364649,0.02523624,0.00255697,-0.00107843,0.003
 30719,0.04281485\\0.00703403,0.00992162,-0.00070555,0.00703313,-0.0099
 2143,-0.00070560,-0.01596145,-0.00000019,0.00161027,0.00115827,-0.0067
 8031,-0.00012734,0.00342596,-0.00265041,-0.00033986,-0.00608192,-0.003
 38841,0.00059444,0.00000509,-0.00087103,0.00000071,-0.00608147,0.00338
 940,0.00059408,0.00115886,0.00678065,-0.00012716,0.00342507,0.00264940
 ,-0.00033967,0.00000522,0.00087147,0.00000067,-0.00564888,0.00586981,0
 .00055855,-0.00564816,-0.00587059,0.00055874,0.00868776,0.00000005,-0.
 00094816,-0.00407656,-0.00000002,-0.00422331,-0.00308948,0.00000003,0.
 00505183,0.01794770,0.00000013,-0.00160259,-0.01229582,-0.00000014,-0.
 00446876,-0.01095333,-0.00000004,0.00674672,0.01013021,0.00000015,-0.0
 0531531,0.00013120,0.,0.00032352,0.01085301,0.00000002,0.00321815,0.00
 004552,0.,-0.00032727,-0.01911405,-0.00000023,0.00150604,-0.00049163,-
 0.00000007,0.00049153,0.00042034,0.00000004,-0.00072321,0.01628218,0.0
 0000001,-0.00088461,0.00124725,0.,-0.00021554,0.00085222,0.00000005,-0
 .00101658,0.00067561,0.00000039,-0.00322073,0.00012492,-0.00298574,0.0
 0195274,0.00012492,0.00298541,0.00195238,-0.00134961,-0.00108792,0.000
 12685,0.00089836,-0.00038766,-0.00033785,0.00095646,-0.00038083,0.0001
 5637,0.00057084,-0.00147215,-0.00005296,0.00226314,-0.00131534,-0.0002
 1896,-0.00148135,0.00015925,0.00091793,-0.00161285,0.00024370,-0.00062
 253,-0.00090785,-0.00140559,0.00009661,-0.00134914,0.00108729,0.000126
 58,0.00095624,0.00038081,0.00015638,0.00089828,0.00038776,-0.00033774,
 0.00057081,0.00147266,-0.00005299,0.00226308,0.00131465,-0.00021860,-0
 .00161290,-0.00024365,-0.00062272,-0.00148133,-0.00015922,0.00091792,-
 0.00090790,0.00140621,0.00009653\\\@


 WE THE UNWILLING
 LED BY THE UNQUALIFIED
 HAVE BEEN DOING THE UNBELIEVABLE SO LONG WITH SO LITTLE
 THAT WE NOW ATTEMPT THE IMPOSSIBLE WITH NOTHING.

                                    -- ANONYMOUS
 Job cpu time:       1 days  1 hours 54 minutes 39.2 seconds.
 Elapsed time:       0 days  0 hours 39 minutes  8.1 seconds.
 File lengths (MBytes):  RWF=   4473 Int=      0 D2E=      0 Chk=     69 Scr=      1
 Normal termination of Gaussian 16 at Fri Jan 16 13:31:03 2026.
