 Entering Gaussian System, Link 0=g16
 Initial command:
 /home/users/ntu/xiaogan4/Softwares/g16/l1.exe "/scratch/users/ntu/xiaogan4/g16scratch/Gau-1242064.inp" -scrdir="/scratch/users/ntu/xiaogan4/g16scratch/"
 Entering Link 1 = /home/users/ntu/xiaogan4/Softwares/g16/l1.exe PID=   1242065.
  
 Copyright (c) 1988,1990,1992,1993,1995,1998,2003,2009,2016,
            Gaussian, Inc.  All Rights Reserved.
  
 This is part of the Gaussian(R) 16 program.  It is based on
 the Gaussian(R) 09 system (copyright 2009, Gaussian, Inc.),
 the Gaussian(R) 03 system (copyright 2003, Gaussian, Inc.),
 the Gaussian(R) 98 system (copyright 1998, Gaussian, Inc.),
 the Gaussian(R) 94 system (copyright 1995, Gaussian, Inc.),
 the Gaussian 92(TM) system (copyright 1992, Gaussian, Inc.),
 the Gaussian 90(TM) system (copyright 1990, Gaussian, Inc.),
 the Gaussian 88(TM) system (copyright 1988, Gaussian, Inc.),
 the Gaussian 86(TM) system (copyright 1986, Carnegie Mellon
 University), and the Gaussian 82(TM) system (copyright 1983,
 Carnegie Mellon University). Gaussian is a federally registered
 trademark of Gaussian, Inc.
  
 This software contains proprietary and confidential information,
 including trade secrets, belonging to Gaussian, Inc.
  
 This software is provided under written license and may be
 used, copied, transmitted, or stored only in accord with that
 written license.
  
 The following legend is applicable only to US Government
 contracts under FAR:
  
                    RESTRICTED RIGHTS LEGEND
  
 Use, reproduction and disclosure by the US Government is
 subject to restrictions as set forth in subparagraphs (a)
 and (c) of the Commercial Computer Software - Restricted
 Rights clause in FAR 52.227-19.
  
 Gaussian, Inc.
 340 Quinnipiac St., Bldg. 40, Wallingford CT 06492
  
  
 ---------------------------------------------------------------
 Warning -- This program may not be used in any manner that
 competes with the business of Gaussian, Inc. or will provide
 assistance to any competitor of Gaussian, Inc.  The licensee
 of this program is prohibited from giving any competitor of
 Gaussian, Inc. access to this program.  By using this program,
 the user acknowledges that Gaussian, Inc. is engaged in the
 business of creating and licensing software in the field of
 computational chemistry and represents and warrants to the
 licensee that it is not a competitor of Gaussian, Inc. and that
 it will not use this program in any manner prohibited above.
 ---------------------------------------------------------------
  

 Cite this work as:
 Gaussian 16, Revision A.03,
 M. J. Frisch, G. W. Trucks, H. B. Schlegel, G. E. Scuseria, 
 M. A. Robb, J. R. Cheeseman, G. Scalmani, V. Barone, 
 G. A. Petersson, H. Nakatsuji, X. Li, M. Caricato, A. V. Marenich, 
 J. Bloino, B. G. Janesko, R. Gomperts, B. Mennucci, H. P. Hratchian, 
 J. V. Ortiz, A. F. Izmaylov, J. L. Sonnenberg, D. Williams-Young, 
 F. Ding, F. Lipparini, F. Egidi, J. Goings, B. Peng, A. Petrone, 
 T. Henderson, D. Ranasinghe, V. G. Zakrzewski, J. Gao, N. Rega, 
 G. Zheng, W. Liang, M. Hada, M. Ehara, K. Toyota, R. Fukuda, 
 J. Hasegawa, M. Ishida, T. Nakajima, Y. Honda, O. Kitao, H. Nakai, 
 T. Vreven, K. Throssell, J. A. Montgomery, Jr., J. E. Peralta, 
 F. Ogliaro, M. J. Bearpark, J. J. Heyd, E. N. Brothers, K. N. Kudin, 
 V. N. Staroverov, T. A. Keith, R. Kobayashi, J. Normand, 
 K. Raghavachari, A. P. Rendell, J. C. Burant, S. S. Iyengar, 
 J. Tomasi, M. Cossi, J. M. Millam, M. Klene, C. Adamo, R. Cammi, 
 J. W. Ochterski, R. L. Martin, K. Morokuma, O. Farkas, 
 J. B. Foresman, and D. J. Fox, Gaussian, Inc., Wallingford CT, 2016.
 
 ******************************************
 Gaussian 16:  ES64L-G16RevA.03 25-Dec-2016
                18-Jan-2026 
 ******************************************
 %nprocshared=40
 Will use up to   40 processors via shared memory.
 %mem=128GB
 %chk=04BDP-NH2_m062x_def2SVP_dmso.chk
 ----------------------------------------------------------------------
 # opt=(calcall, modredundant) td=(nstates=5,root=1) scrf=(smd,solvent=
 ethanol) def2svp m062x
 ----------------------------------------------------------------------
 1/10=4,18=120,19=15,26=3,38=1/1,3;
 2/9=110,12=2,17=6,18=5,40=1/2;
 3/5=43,7=101,11=9,25=1,30=1,70=32201,71=2,72=4,74=-55,140=1/1,2,3,8;
 4//1;
 5/5=2,38=5,53=4/2;
 8/6=1,10=1,107=1,108=5/1;
 9/8=1,15=3,41=5,42=1,70=2/14;
 10/5=2004,20=4,28=1/2;
 11/6=1,8=1,12=-1,16=1,42=3/1,2,10;
 10/6=3,21=1,28=1/2,14;
 6/7=2,8=2,9=2,10=2,18=1/1;
 7/10=1,12=6,13=8,14=1,25=1,44=2/1,2,3,16;
 1/10=4,18=20,19=15,26=3/3(3);
 2/9=110/2;
 7/8=1,9=1,25=1,44=-1/16;
 99//99;
 2/9=110/2;
 3/5=43,7=101,11=9,25=1,30=1,70=32205,71=2,72=4,74=-55,140=1/1,2,3,8;
 4/5=5,16=3,69=1/1;
 5/5=2,38=5,53=4/2;
 8/6=1,10=1,107=1,108=5/1;
 9/8=1,15=3,41=5,42=1,49=4,70=2/14;
 10/5=2004,20=4,28=1/2;
 11/6=1,8=1,12=-1,16=1,42=3/1,2,10;
 10/6=3,21=1,28=1/2,14;
 7/10=1,12=6,13=8,14=1,25=1,44=2/1,2,3,16;
 1/10=4,18=20,19=15,26=3/3(-10);
 2/9=110/2;
 6/7=2,8=2,9=2,10=2,18=1/1;
 7/8=1,9=1,25=1,44=-1/16;
 99//99;
 --------------------------
 Step4 ES Opt m062x/def2SVP
 --------------------------
 Symbolic Z-matrix:
 Charge =  0 Multiplicity = 1
 C                     0.38963  -1.24241  -0.05156 
 C                     0.36307   1.23167  -0.05214 
 C                    -0.33999  -0.01317  -0.05249 
 C                    -0.05172  -2.58231  -0.08462 
 C                     1.12304  -3.37569  -0.06312 
 C                     2.22103  -2.52692  -0.01659 
 H                     1.16504  -4.46392  -0.08296 
 C                     2.16904   2.55218  -0.01617 
 C                    -0.10433   2.5629   -0.08506 
 C                     1.05466   3.37904  -0.06263 
 H                     1.07505   4.4679   -0.08208 
 N                     1.77319  -1.2345   -0.00913 
 N                     1.74687   1.25115  -0.00928 
 B                     2.66276   0.01768   0.07202 
 F                     3.3919    0.02524   1.27972 
 F                     3.59448   0.02763  -0.98342 
 C                    -1.7986   -0.02998  -0.01531 
 C                    -2.48664  -0.02041   1.2428 
 C                    -2.57782  -0.02054  -1.21894 
 C                    -3.84704  -0.01232   1.30636 
 H                    -1.89314  -0.02056   2.15824 
 C                    -3.93966  -0.01272  -1.18204 
 H                    -2.05388  -0.02089  -2.17595 
 C                    -4.6161   -0.00966   0.08919 
 H                    -4.37803  -0.00546   2.25911 
 H                    -4.53806  -0.0064   -2.09391 
 N                    -5.92885  -0.00304   0.14118 
 H                    -6.48722  -0.00064  -0.71014 
 H                    -6.41631  -0.00029   1.035 
 C                    -1.45834  -3.09748  -0.15306 
 H                    -2.06995  -2.78277   0.70763 
 H                    -1.98399  -2.76294  -1.06201 
 H                    -1.45328  -4.19682  -0.16568 
 C                     3.67577  -2.86622   0.01383 
 H                     4.19415  -2.49948  -0.88505 
 H                     4.17334  -2.40932   0.88262 
 H                     3.80551  -3.95457   0.07009 
 C                    -1.51935   3.054    -0.15612 
 H                    -2.03471   2.71846  -1.07057 
 H                    -2.13021   2.72254   0.69872 
 H                    -1.53245   4.15334  -0.16004 
 C                     3.6165    2.9214    0.0125 
 H                     4.12867   2.45896   0.86964 
 H                     4.13756   2.58405  -0.89633 
 H                     3.72322   4.01108   0.08854 
 
 The following ModRedundant input section has been read:
 D       2       3      17      19 F                                           
 D       1       3      17      18 F                                           
 

 GradGradGradGradGradGradGradGradGradGradGradGradGradGradGradGradGradGrad
 Berny optimization.
 Initialization pass.
                           ----------------------------
                           !    Initial Parameters    !
                           ! (Angstroms and Degrees)  !
 --------------------------                            --------------------------
 ! Name  Definition              Value          Derivative Info.                !
 --------------------------------------------------------------------------------
 ! R1    R(1,3)                  1.4295         calculate D2E/DX2 analytically  !
 ! R2    R(1,4)                  1.4111         calculate D2E/DX2 analytically  !
 ! R3    R(1,12)                 1.3842         calculate D2E/DX2 analytically  !
 ! R4    R(2,3)                  1.4297         calculate D2E/DX2 analytically  !
 ! R5    R(2,9)                  1.4113         calculate D2E/DX2 analytically  !
 ! R6    R(2,13)                 1.3846         calculate D2E/DX2 analytically  !
 ! R7    R(3,17)                 1.4592         calculate D2E/DX2 analytically  !
 ! R8    R(4,5)                  1.4177         calculate D2E/DX2 analytically  !
 ! R9    R(4,30)                 1.4996         calculate D2E/DX2 analytically  !
 ! R10   R(5,6)                  1.3886         calculate D2E/DX2 analytically  !
 ! R11   R(5,7)                  1.0892         calculate D2E/DX2 analytically  !
 ! R12   R(6,12)                 1.3678         calculate D2E/DX2 analytically  !
 ! R13   R(6,34)                 1.4941         calculate D2E/DX2 analytically  !
 ! R14   R(8,10)                 1.3884         calculate D2E/DX2 analytically  !
 ! R15   R(8,13)                 1.3678         calculate D2E/DX2 analytically  !
 ! R16   R(8,42)                 1.4941         calculate D2E/DX2 analytically  !
 ! R17   R(9,10)                 1.4177         calculate D2E/DX2 analytically  !
 ! R18   R(9,38)                 1.4995         calculate D2E/DX2 analytically  !
 ! R19   R(10,11)                1.0892         calculate D2E/DX2 analytically  !
 ! R20   R(12,14)                1.5381         calculate D2E/DX2 analytically  !
 ! R21   R(13,14)                1.5385         calculate D2E/DX2 analytically  !
 ! R22   R(14,15)                1.4108         calculate D2E/DX2 analytically  !
 ! R23   R(14,16)                1.4079         calculate D2E/DX2 analytically  !
 ! R24   R(17,18)                1.434          calculate D2E/DX2 analytically  !
 ! R25   R(17,19)                1.4339         calculate D2E/DX2 analytically  !
 ! R26   R(18,20)                1.3619         calculate D2E/DX2 analytically  !
 ! R27   R(18,21)                1.091          calculate D2E/DX2 analytically  !
 ! R28   R(19,22)                1.3624         calculate D2E/DX2 analytically  !
 ! R29   R(19,23)                1.091          calculate D2E/DX2 analytically  !
 ! R30   R(20,24)                1.4398         calculate D2E/DX2 analytically  !
 ! R31   R(20,25)                1.0908         calculate D2E/DX2 analytically  !
 ! R32   R(22,24)                1.44           calculate D2E/DX2 analytically  !
 ! R33   R(22,26)                1.0907         calculate D2E/DX2 analytically  !
 ! R34   R(24,27)                1.3138         calculate D2E/DX2 analytically  !
 ! R35   R(27,28)                1.0181         calculate D2E/DX2 analytically  !
 ! R36   R(27,29)                1.0181         calculate D2E/DX2 analytically  !
 ! R37   R(30,31)                1.1018         calculate D2E/DX2 analytically  !
 ! R38   R(30,32)                1.102          calculate D2E/DX2 analytically  !
 ! R39   R(30,33)                1.0994         calculate D2E/DX2 analytically  !
 ! R40   R(34,35)                1.1005         calculate D2E/DX2 analytically  !
 ! R41   R(34,36)                1.1005         calculate D2E/DX2 analytically  !
 ! R42   R(34,37)                1.0975         calculate D2E/DX2 analytically  !
 ! R43   R(38,39)                1.102          calculate D2E/DX2 analytically  !
 ! R44   R(38,40)                1.1017         calculate D2E/DX2 analytically  !
 ! R45   R(38,41)                1.0994         calculate D2E/DX2 analytically  !
 ! R46   R(42,43)                1.1004         calculate D2E/DX2 analytically  !
 ! R47   R(42,44)                1.1006         calculate D2E/DX2 analytically  !
 ! R48   R(42,45)                1.0975         calculate D2E/DX2 analytically  !
 ! A1    A(3,1,4)              131.0624         calculate D2E/DX2 analytically  !
 ! A2    A(3,1,12)             120.3494         calculate D2E/DX2 analytically  !
 ! A3    A(4,1,12)             108.5879         calculate D2E/DX2 analytically  !
 ! A4    A(3,2,9)              131.1827         calculate D2E/DX2 analytically  !
 ! A5    A(3,2,13)             120.2477         calculate D2E/DX2 analytically  !
 ! A6    A(9,2,13)             108.5692         calculate D2E/DX2 analytically  !
 ! A7    A(1,3,2)              119.8517         calculate D2E/DX2 analytically  !
 ! A8    A(1,3,17)             120.0192         calculate D2E/DX2 analytically  !
 ! A9    A(2,3,17)             120.1061         calculate D2E/DX2 analytically  !
 ! A10   A(1,4,5)              105.7747         calculate D2E/DX2 analytically  !
 ! A11   A(1,4,30)             128.365          calculate D2E/DX2 analytically  !
 ! A12   A(5,4,30)             125.8523         calculate D2E/DX2 analytically  !
 ! A13   A(4,5,6)              108.2796         calculate D2E/DX2 analytically  !
 ! A14   A(4,5,7)              126.2122         calculate D2E/DX2 analytically  !
 ! A15   A(6,5,7)              125.5079         calculate D2E/DX2 analytically  !
 ! A16   A(5,6,12)             108.5927         calculate D2E/DX2 analytically  !
 ! A17   A(5,6,34)             129.1811         calculate D2E/DX2 analytically  !
 ! A18   A(12,6,34)            122.2252         calculate D2E/DX2 analytically  !
 ! A19   A(10,8,13)            108.5965         calculate D2E/DX2 analytically  !
 ! A20   A(10,8,42)            129.1277         calculate D2E/DX2 analytically  !
 ! A21   A(13,8,42)            122.2741         calculate D2E/DX2 analytically  !
 ! A22   A(2,9,10)             105.7774         calculate D2E/DX2 analytically  !
 ! A23   A(2,9,38)             128.5037         calculate D2E/DX2 analytically  !
 ! A24   A(10,9,38)            125.7093         calculate D2E/DX2 analytically  !
 ! A25   A(8,10,9)             108.2917         calculate D2E/DX2 analytically  !
 ! A26   A(8,10,11)            125.515          calculate D2E/DX2 analytically  !
 ! A27   A(9,10,11)            126.1929         calculate D2E/DX2 analytically  !
 ! A28   A(1,12,6)             108.7649         calculate D2E/DX2 analytically  !
 ! A29   A(1,12,14)            125.7556         calculate D2E/DX2 analytically  !
 ! A30   A(6,12,14)            125.4601         calculate D2E/DX2 analytically  !
 ! A31   A(2,13,8)             108.7651         calculate D2E/DX2 analytically  !
 ! A32   A(2,13,14)            125.8269         calculate D2E/DX2 analytically  !
 ! A33   A(8,13,14)            125.3883         calculate D2E/DX2 analytically  !
 ! A34   A(12,14,13)           107.7944         calculate D2E/DX2 analytically  !
 ! A35   A(12,14,15)           110.3918         calculate D2E/DX2 analytically  !
 ! A36   A(12,14,16)           110.4226         calculate D2E/DX2 analytically  !
 ! A37   A(13,14,15)           110.4034         calculate D2E/DX2 analytically  !
 ! A38   A(13,14,16)           110.4076         calculate D2E/DX2 analytically  !
 ! A39   A(15,14,16)           107.4384         calculate D2E/DX2 analytically  !
 ! A40   A(3,17,18)            120.1255         calculate D2E/DX2 analytically  !
 ! A41   A(3,17,19)            121.4504         calculate D2E/DX2 analytically  !
 ! A42   A(18,17,19)           118.4037         calculate D2E/DX2 analytically  !
 ! A43   A(17,18,20)           121.3495         calculate D2E/DX2 analytically  !
 ! A44   A(17,18,21)           118.3695         calculate D2E/DX2 analytically  !
 ! A45   A(20,18,21)           120.281          calculate D2E/DX2 analytically  !
 ! A46   A(17,19,22)           121.3677         calculate D2E/DX2 analytically  !
 ! A47   A(17,19,23)           118.3813         calculate D2E/DX2 analytically  !
 ! A48   A(22,19,23)           120.2509         calculate D2E/DX2 analytically  !
 ! A49   A(18,20,24)           119.6118         calculate D2E/DX2 analytically  !
 ! A50   A(18,20,25)           121.8077         calculate D2E/DX2 analytically  !
 ! A51   A(24,20,25)           118.5803         calculate D2E/DX2 analytically  !
 ! A52   A(19,22,24)           119.5704         calculate D2E/DX2 analytically  !
 ! A53   A(19,22,26)           121.7233         calculate D2E/DX2 analytically  !
 ! A54   A(24,22,26)           118.7062         calculate D2E/DX2 analytically  !
 ! A55   A(20,24,22)           119.695          calculate D2E/DX2 analytically  !
 ! A56   A(20,24,27)           120.0185         calculate D2E/DX2 analytically  !
 ! A57   A(22,24,27)           120.2864         calculate D2E/DX2 analytically  !
 ! A58   A(24,27,28)           120.992          calculate D2E/DX2 analytically  !
 ! A59   A(24,27,29)           120.8752         calculate D2E/DX2 analytically  !
 ! A60   A(28,27,29)           118.1329         calculate D2E/DX2 analytically  !
 ! A61   A(4,30,31)            112.7634         calculate D2E/DX2 analytically  !
 ! A62   A(4,30,32)            112.382          calculate D2E/DX2 analytically  !
 ! A63   A(4,30,33)            109.8607         calculate D2E/DX2 analytically  !
 ! A64   A(31,30,32)           107.0279         calculate D2E/DX2 analytically  !
 ! A65   A(31,30,33)           107.2862         calculate D2E/DX2 analytically  !
 ! A66   A(32,30,33)           107.2339         calculate D2E/DX2 analytically  !
 ! A67   A(6,34,35)            111.4886         calculate D2E/DX2 analytically  !
 ! A68   A(6,34,36)            111.2235         calculate D2E/DX2 analytically  !
 ! A69   A(6,34,37)            109.9586         calculate D2E/DX2 analytically  !
 ! A70   A(35,34,36)           107.0661         calculate D2E/DX2 analytically  !
 ! A71   A(35,34,37)           108.4601         calculate D2E/DX2 analytically  !
 ! A72   A(36,34,37)           108.5292         calculate D2E/DX2 analytically  !
 ! A73   A(9,38,39)            112.3904         calculate D2E/DX2 analytically  !
 ! A74   A(9,38,40)            112.8251         calculate D2E/DX2 analytically  !
 ! A75   A(9,38,41)            109.8098         calculate D2E/DX2 analytically  !
 ! A76   A(39,38,40)           107.0349         calculate D2E/DX2 analytically  !
 ! A77   A(39,38,41)           107.2131         calculate D2E/DX2 analytically  !
 ! A78   A(40,38,41)           107.2776         calculate D2E/DX2 analytically  !
 ! A79   A(8,42,43)            111.224          calculate D2E/DX2 analytically  !
 ! A80   A(8,42,44)            111.5351         calculate D2E/DX2 analytically  !
 ! A81   A(8,42,45)            109.931          calculate D2E/DX2 analytically  !
 ! A82   A(43,42,44)           107.1007         calculate D2E/DX2 analytically  !
 ! A83   A(43,42,45)           108.5429         calculate D2E/DX2 analytically  !
 ! A84   A(44,42,45)           108.3914         calculate D2E/DX2 analytically  !
 ! D1    D(4,1,3,2)           -178.2242         calculate D2E/DX2 analytically  !
 ! D2    D(4,1,3,17)             3.5209         calculate D2E/DX2 analytically  !
 ! D3    D(12,1,3,2)             1.9765         calculate D2E/DX2 analytically  !
 ! D4    D(12,1,3,17)         -176.2784         calculate D2E/DX2 analytically  !
 ! D5    D(3,1,4,5)           -179.9366         calculate D2E/DX2 analytically  !
 ! D6    D(3,1,4,30)             1.0541         calculate D2E/DX2 analytically  !
 ! D7    D(12,1,4,5)            -0.1193         calculate D2E/DX2 analytically  !
 ! D8    D(12,1,4,30)         -179.1286         calculate D2E/DX2 analytically  !
 ! D9    D(3,1,12,6)           179.9417         calculate D2E/DX2 analytically  !
 ! D10   D(3,1,12,14)            1.4763         calculate D2E/DX2 analytically  !
 ! D11   D(4,1,12,6)             0.1013         calculate D2E/DX2 analytically  !
 ! D12   D(4,1,12,14)         -178.3641         calculate D2E/DX2 analytically  !
 ! D13   D(9,2,3,1)            178.2628         calculate D2E/DX2 analytically  !
 ! D14   D(9,2,3,17)            -3.4838         calculate D2E/DX2 analytically  !
 ! D15   D(13,2,3,1)            -1.9949         calculate D2E/DX2 analytically  !
 ! D16   D(13,2,3,17)          176.2584         calculate D2E/DX2 analytically  !
 ! D17   D(3,2,9,10)           179.8678         calculate D2E/DX2 analytically  !
 ! D18   D(3,2,9,38)            -1.2195         calculate D2E/DX2 analytically  !
 ! D19   D(13,2,9,10)            0.1027         calculate D2E/DX2 analytically  !
 ! D20   D(13,2,9,38)          179.0154         calculate D2E/DX2 analytically  !
 ! D21   D(3,2,13,8)          -179.8894         calculate D2E/DX2 analytically  !
 ! D22   D(3,2,13,14)           -1.4364         calculate D2E/DX2 analytically  !
 ! D23   D(9,2,13,8)            -0.094          calculate D2E/DX2 analytically  !
 ! D24   D(9,2,13,14)          178.359          calculate D2E/DX2 analytically  !
 ! D25   D(1,3,17,18)           89.9218         frozen, calculate D2E/DX2 analyt!
 ! D26   D(1,3,17,19)          -91.7496         calculate D2E/DX2 analytically  !
 ! D27   D(2,3,17,18)          -88.3286         calculate D2E/DX2 analytically  !
 ! D28   D(2,3,17,19)           90.0            frozen, calculate D2E/DX2 analyt!
 ! D29   D(1,4,5,6)              0.0942         calculate D2E/DX2 analytically  !
 ! D30   D(1,4,5,7)           -179.7101         calculate D2E/DX2 analytically  !
 ! D31   D(30,4,5,6)           179.1359         calculate D2E/DX2 analytically  !
 ! D32   D(30,4,5,7)            -0.6684         calculate D2E/DX2 analytically  !
 ! D33   D(1,4,30,31)          -60.4962         calculate D2E/DX2 analytically  !
 ! D34   D(1,4,30,32)           60.5843         calculate D2E/DX2 analytically  !
 ! D35   D(1,4,30,33)          179.887          calculate D2E/DX2 analytically  !
 ! D36   D(5,4,30,31)          120.68           calculate D2E/DX2 analytically  !
 ! D37   D(5,4,30,32)         -118.2395         calculate D2E/DX2 analytically  !
 ! D38   D(5,4,30,33)            1.0633         calculate D2E/DX2 analytically  !
 ! D39   D(4,5,6,12)            -0.0347         calculate D2E/DX2 analytically  !
 ! D40   D(4,5,6,34)          -179.6588         calculate D2E/DX2 analytically  !
 ! D41   D(7,5,6,12)           179.7713         calculate D2E/DX2 analytically  !
 ! D42   D(7,5,6,34)             0.1473         calculate D2E/DX2 analytically  !
 ! D43   D(5,6,12,1)            -0.041          calculate D2E/DX2 analytically  !
 ! D44   D(5,6,12,14)          178.4301         calculate D2E/DX2 analytically  !
 ! D45   D(34,6,12,1)          179.6145         calculate D2E/DX2 analytically  !
 ! D46   D(34,6,12,14)          -1.9144         calculate D2E/DX2 analytically  !
 ! D47   D(5,6,34,35)          116.1026         calculate D2E/DX2 analytically  !
 ! D48   D(5,6,34,36)         -124.4759         calculate D2E/DX2 analytically  !
 ! D49   D(5,6,34,37)           -4.2293         calculate D2E/DX2 analytically  !
 ! D50   D(12,6,34,35)         -63.4762         calculate D2E/DX2 analytically  !
 ! D51   D(12,6,34,36)          55.9454         calculate D2E/DX2 analytically  !
 ! D52   D(12,6,34,37)         176.1919         calculate D2E/DX2 analytically  !
 ! D53   D(13,8,10,9)            0.019          calculate D2E/DX2 analytically  !
 ! D54   D(13,8,10,11)        -179.7704         calculate D2E/DX2 analytically  !
 ! D55   D(42,8,10,9)          179.5363         calculate D2E/DX2 analytically  !
 ! D56   D(42,8,10,11)          -0.2531         calculate D2E/DX2 analytically  !
 ! D57   D(10,8,13,2)            0.0463         calculate D2E/DX2 analytically  !
 ! D58   D(10,8,13,14)        -178.4152         calculate D2E/DX2 analytically  !
 ! D59   D(42,8,13,2)         -179.5109         calculate D2E/DX2 analytically  !
 ! D60   D(42,8,13,14)           2.0277         calculate D2E/DX2 analytically  !
 ! D61   D(10,8,42,43)         125.6506         calculate D2E/DX2 analytically  !
 ! D62   D(10,8,42,44)        -114.8525         calculate D2E/DX2 analytically  !
 ! D63   D(10,8,42,45)           5.4048         calculate D2E/DX2 analytically  !
 ! D64   D(13,8,42,43)         -54.8904         calculate D2E/DX2 analytically  !
 ! D65   D(13,8,42,44)          64.6064         calculate D2E/DX2 analytically  !
 ! D66   D(13,8,42,45)        -175.1362         calculate D2E/DX2 analytically  !
 ! D67   D(2,9,10,8)            -0.0745         calculate D2E/DX2 analytically  !
 ! D68   D(2,9,10,11)          179.7131         calculate D2E/DX2 analytically  !
 ! D69   D(38,9,10,8)         -179.0266         calculate D2E/DX2 analytically  !
 ! D70   D(38,9,10,11)           0.761          calculate D2E/DX2 analytically  !
 ! D71   D(2,9,38,39)          -61.0613         calculate D2E/DX2 analytically  !
 ! D72   D(2,9,38,40)           60.08           calculate D2E/DX2 analytically  !
 ! D73   D(2,9,38,41)          179.691          calculate D2E/DX2 analytically  !
 ! D74   D(10,9,38,39)         117.6501         calculate D2E/DX2 analytically  !
 ! D75   D(10,9,38,40)        -121.2087         calculate D2E/DX2 analytically  !
 ! D76   D(10,9,38,41)          -1.5977         calculate D2E/DX2 analytically  !
 ! D77   D(1,12,14,13)          -4.1714         calculate D2E/DX2 analytically  !
 ! D78   D(1,12,14,15)         116.4881         calculate D2E/DX2 analytically  !
 ! D79   D(1,12,14,16)        -124.8543         calculate D2E/DX2 analytically  !
 ! D80   D(6,12,14,13)         177.6125         calculate D2E/DX2 analytically  !
 ! D81   D(6,12,14,15)         -61.728          calculate D2E/DX2 analytically  !
 ! D82   D(6,12,14,16)          56.9297         calculate D2E/DX2 analytically  !
 ! D83   D(2,13,14,12)           4.1535         calculate D2E/DX2 analytically  !
 ! D84   D(2,13,14,15)        -116.4987         calculate D2E/DX2 analytically  !
 ! D85   D(2,13,14,16)         124.8458         calculate D2E/DX2 analytically  !
 ! D86   D(8,13,14,12)        -177.6434         calculate D2E/DX2 analytically  !
 ! D87   D(8,13,14,15)          61.7044         calculate D2E/DX2 analytically  !
 ! D88   D(8,13,14,16)         -56.9511         calculate D2E/DX2 analytically  !
 ! D89   D(3,17,18,20)         178.8493         calculate D2E/DX2 analytically  !
 ! D90   D(3,17,18,21)          -1.2007         calculate D2E/DX2 analytically  !
 ! D91   D(19,17,18,20)          0.4702         calculate D2E/DX2 analytically  !
 ! D92   D(19,17,18,21)       -179.5798         calculate D2E/DX2 analytically  !
 ! D93   D(3,17,19,22)        -178.84           calculate D2E/DX2 analytically  !
 ! D94   D(3,17,19,23)           1.229          calculate D2E/DX2 analytically  !
 ! D95   D(18,17,19,22)         -0.4835         calculate D2E/DX2 analytically  !
 ! D96   D(18,17,19,23)        179.5855         calculate D2E/DX2 analytically  !
 ! D97   D(17,18,20,24)         -0.1691         calculate D2E/DX2 analytically  !
 ! D98   D(17,18,20,25)        179.9721         calculate D2E/DX2 analytically  !
 ! D99   D(21,18,20,24)        179.8819         calculate D2E/DX2 analytically  !
 ! D100  D(21,18,20,25)          0.023          calculate D2E/DX2 analytically  !
 ! D101  D(17,19,22,24)          0.1946         calculate D2E/DX2 analytically  !
 ! D102  D(17,19,22,26)       -179.9458         calculate D2E/DX2 analytically  !
 ! D103  D(23,19,22,24)       -179.8757         calculate D2E/DX2 analytically  !
 ! D104  D(23,19,22,26)         -0.0161         calculate D2E/DX2 analytically  !
 ! D105  D(18,20,24,22)         -0.1305         calculate D2E/DX2 analytically  !
 ! D106  D(18,20,24,27)        179.9406         calculate D2E/DX2 analytically  !
 ! D107  D(25,20,24,22)        179.7329         calculate D2E/DX2 analytically  !
 ! D108  D(25,20,24,27)         -0.1959         calculate D2E/DX2 analytically  !
 ! D109  D(19,22,24,20)          0.1177         calculate D2E/DX2 analytically  !
 ! D110  D(19,22,24,27)       -179.9537         calculate D2E/DX2 analytically  !
 ! D111  D(26,22,24,20)       -179.7461         calculate D2E/DX2 analytically  !
 ! D112  D(26,22,24,27)          0.1825         calculate D2E/DX2 analytically  !
 ! D113  D(20,24,27,28)        179.9713         calculate D2E/DX2 analytically  !
 ! D114  D(20,24,27,29)         -0.0364         calculate D2E/DX2 analytically  !
 ! D115  D(22,24,27,28)          0.0429         calculate D2E/DX2 analytically  !
 ! D116  D(22,24,27,29)       -179.9649         calculate D2E/DX2 analytically  !
 --------------------------------------------------------------------------------
 Trust Radius=3.00D-01 FncErr=1.00D-07 GrdErr=1.00D-06 EigMax=2.50D+02 EigMin=1.00D-04
 Number of steps in this run=    258 maximum allowed number of steps=    270.
 GradGradGradGradGradGradGradGradGradGradGradGradGradGradGradGradGradGrad

                          Input orientation:                          
 ---------------------------------------------------------------------
 Center     Atomic      Atomic             Coordinates (Angstroms)
 Number     Number       Type             X           Y           Z
 ---------------------------------------------------------------------
      1          6           0        0.389629   -1.242409   -0.051560
      2          6           0        0.363070    1.231669   -0.052144
      3          6           0       -0.339990   -0.013170   -0.052490
      4          6           0       -0.051718   -2.582306   -0.084622
      5          6           0        1.123040   -3.375690   -0.063116
      6          6           0        2.221031   -2.526921   -0.016591
      7          1           0        1.165038   -4.463919   -0.082961
      8          6           0        2.169044    2.552178   -0.016172
      9          6           0       -0.104332    2.562904   -0.085062
     10          6           0        1.054664    3.379039   -0.062627
     11          1           0        1.075053    4.467903   -0.082084
     12          7           0        1.773187   -1.234500   -0.009127
     13          7           0        1.746871    1.251145   -0.009275
     14          5           0        2.662760    0.017683    0.072019
     15          9           0        3.391902    0.025244    1.279715
     16          9           0        3.594476    0.027634   -0.983421
     17          6           0       -1.798598   -0.029982   -0.015313
     18          6           0       -2.486639   -0.020407    1.242802
     19          6           0       -2.577815   -0.020544   -1.218940
     20          6           0       -3.847036   -0.012318    1.306356
     21          1           0       -1.893138   -0.020555    2.158243
     22          6           0       -3.939658   -0.012721   -1.182039
     23          1           0       -2.053883   -0.020890   -2.175952
     24          6           0       -4.616096   -0.009657    0.089189
     25          1           0       -4.378027   -0.005462    2.259115
     26          1           0       -4.538061   -0.006401   -2.093909
     27          7           0       -5.928854   -0.003044    0.141183
     28          1           0       -6.487216   -0.000644   -0.710143
     29          1           0       -6.416315   -0.000294    1.035001
     30          6           0       -1.458338   -3.097480   -0.153058
     31          1           0       -2.069949   -2.782766    0.707634
     32          1           0       -1.983989   -2.762937   -1.062015
     33          1           0       -1.453282   -4.196822   -0.165684
     34          6           0        3.675769   -2.866218    0.013826
     35          1           0        4.194152   -2.499483   -0.885051
     36          1           0        4.173341   -2.409320    0.882623
     37          1           0        3.805506   -3.954573    0.070090
     38          6           0       -1.519349    3.054003   -0.156118
     39          1           0       -2.034714    2.718463   -1.070566
     40          1           0       -2.130205    2.722537    0.698718
     41          1           0       -1.532452    4.153339   -0.160038
     42          6           0        3.616498    2.921398    0.012499
     43          1           0        4.128669    2.458961    0.869640
     44          1           0        4.137557    2.584046   -0.896328
     45          1           0        3.723220    4.011077    0.088541
 ---------------------------------------------------------------------
                    Distance matrix (angstroms):
                    1          2          3          4          5
     1  C    0.000000
     2  C    2.474221   0.000000
     3  C    1.429466   1.429656   0.000000
     4  C    1.411100   3.836601   2.585458   0.000000
     5  C    2.255862   4.669629   3.667030   1.417737   0.000000
     6  C    2.237237   4.192885   3.588741   2.274441   1.388581
     7  H    3.313664   5.751854   4.698426   2.240751   1.089220
     8  C    4.191236   2.237539   3.588535   5.594586   6.019630
     9  C    3.837385   1.411288   2.587036   5.145479   6.064142
    10  C    4.669066   2.256016   3.667730   6.063184   6.755075
    11  H    5.751383   3.313763   4.699281   7.139683   7.843763
    12  N    1.384231   2.841174   2.441115   2.269925   2.238370
    13  N    2.839314   1.384602   2.440358   4.235085   4.669011
    14  B    2.601966   2.603412   3.005489   3.762030   3.728804
    15  F    3.520352   3.521808   3.962734   4.529818   4.303171
    16  F    3.571053   3.571969   4.043306   4.573222   4.305528
    17  C    2.501925   2.503184   1.459179   3.093663   4.442073
    18  C    3.382540   3.371264   2.507177   3.775476   5.098346
    19  C    3.414887   3.402683   2.523593   3.772329   5.127305
    20  C    4.615885   4.595435   3.761095   4.790000   6.155435
    21  H    3.403995   3.397698   2.701789   3.870896   5.028787
    22  C    4.640349   4.619376   3.772730   4.787815   6.180005
    23  H    3.460621   3.452698   2.728842   3.865641   5.080512
    24  C    5.157206   5.133513   4.278454   5.242354   6.655153
    25  H    5.440570   5.417602   4.652883   5.554294   6.856598
    26  H    5.475494   5.451854   4.668109   5.549756   6.893787
    27  N    6.441770   6.414842   5.592228   6.422173   7.819571
    28  H    7.019025   6.991279   6.182318   6.962176   8.350184
    29  H    7.003166   6.975649   6.172887   6.959054   8.333129
    30  C    2.620415   4.697791   3.282344   1.499556   2.597884
    31  H    2.999767   4.755264   3.352791   2.177409   3.337783
    32  H    2.994509   4.741878   3.359031   2.172923   3.320677
    33  H    3.483949   5.725429   4.330725   2.139536   2.705959
    34  C    3.666026   5.269820   4.926520   3.739580   2.604210
    35  H    4.092595   5.412247   5.237686   4.321453   3.297733
    36  H    4.068274   5.352453   5.194817   4.337812   3.336560
    37  H    4.363353   6.225947   5.721435   4.096978   2.747448
    38  C    4.702583   2.622063   3.287731   5.824692   6.952109
    39  H    4.754400   2.999518   3.372000   5.744781   6.937223
    40  H    4.757444   3.000484   3.354590   5.751095   6.953587
    41  H    5.728897   3.484365   4.335127   6.896896   7.984191
    42  C    5.268214   3.666627   4.926430   6.614832   6.773210
    43  H    5.341270   4.066407   5.189477   6.618204   6.629253
    44  H    5.422394   4.097356   5.244618   6.700753   6.730528
    45  H    6.223469   4.362970   5.720501   7.599529   7.832513
                    6          7          8          9         10
     6  C    0.000000
     7  H    2.207145   0.000000
     8  C    5.079365   7.087884   0.000000
     9  C    5.596277   7.140556   2.274445   0.000000
    10  C    6.020207   7.843761   1.388416   1.417692   0.000000
    11  H    7.088379   8.932275   2.207071   2.240531   1.089229
    12  N    1.367835   3.287011   3.807320   4.236876   4.669462
    13  N    3.807711   5.745078   1.367832   2.270112   2.238287
    14  B    2.584180   4.727785   2.583640   3.762927   3.728648
    15  F    3.092716   5.193110   3.091941   4.530561   4.302616
    16  F    3.057264   5.185272   3.056264   4.573382   4.304698
    17  C    4.732032   5.333621   4.733892   3.098138   4.445758
    18  C    5.480040   5.902304   5.466131   3.756608   5.079489
    19  C    5.545854   5.919711   5.531566   3.752066   5.107752
    20  C    6.700362   6.846009   6.672251   4.751384   6.115724
    21  H    5.285656   5.841140   5.277154   3.860894   5.017872
    22  C    6.755262   6.861418   6.727124   4.748361   6.140063
    23  H    5.405360   5.872186   5.396151   3.853383   5.068405
    24  C    7.286571   7.300109   7.253428   5.196580   6.607861
    25  H    7.421870   7.489241   7.388003   5.509641   6.808778
    26  H    7.506903   7.512571   7.473190   5.504066   6.845866
    27  N    8.533198   8.382896   8.492931   6.368699   7.762058
    28  H    9.093770   8.880944   9.051482   6.906787   8.289842
    29  H    9.060543   8.868523   9.018230   6.904032   8.272860
    30  C    3.725844   2.958745   6.715301   5.820473   6.947565
    31  H    4.359182   3.730477   6.852342   5.750496   6.951572
    32  H    4.339448   3.710560   6.825827   5.731678   6.925031
    33  H    4.038734   2.633208   7.661110   6.893480   7.980857
    34  C    1.494092   2.977547   5.624068   6.616216   6.773424
    35  H    2.155964   3.698363   5.511378   6.689149   6.714893
    36  H    2.152657   3.768769   5.426002   6.630076   6.642646
    37  H    2.134541   2.693498   6.709937   7.601869   7.833684
    38  C    6.719868   7.983135   3.725004   1.499500   2.596138
    39  H    6.836394   7.924670   4.337163   2.172968   3.316106
    40  H    6.855781   7.944482   4.361609   2.178062   3.339765
    41  H    7.663882   9.029924   4.035528   2.138839   2.702258
    42  C    5.624265   7.782138   1.494078   3.739333   2.603473
    43  H    5.411424   7.590575   2.152553   4.340571   3.341433
    44  H    5.528923   7.692285   2.156556   4.318822   3.291094
    45  H    6.709176   8.854336   2.134201   4.096034   2.746546
                   11         12         13         14         15
    11  H    0.000000
    12  N    5.745443   0.000000
    13  N    3.286970   2.485784   0.000000
    14  B    4.727475   1.538144   1.538470   0.000000
    15  F    5.192254   2.422459   2.422902   1.410757   0.000000
    16  F    5.184196   2.420604   2.420658   1.407888   2.272185
    17  C    5.337911   3.769423   3.769837   4.462467   5.349901
    18  C    5.880978   4.602984   4.594252   5.280956   5.878834
    19  C    5.897630   4.676383   4.667268   5.397376   6.471699
    20  C    6.799052   5.900096   5.883793   6.625853   7.239084
    21  H    5.828849   4.428667   4.423236   5.010988   5.357757
    22  C    6.814192   5.958613   5.942167   6.720529   7.733915
    23  H    5.858651   4.562285   4.556127   5.225092   6.449832
    24  C    7.243415   6.506369   6.487424   7.278928   8.096086
    25  H    7.431574   6.670299   6.651243   7.372693   7.831473
    26  H    7.454789   6.759171   6.739992   7.519551   8.617810
    27  N    8.312276   7.801315   7.778970   8.591917   9.390077
    28  H    8.806264   8.381413   8.358133   9.183364  10.077558
    29  H    8.793933   8.347539   8.324315   9.130020   9.811303
    30  C    7.978604   3.732849   5.404126   5.170914   5.943826
    31  H    7.942726   4.204827   5.599510   5.535798   6.167983
    32  H    7.912209   4.190592   5.580361   5.532645   6.492908
    33  H    9.026457   4.382917   6.320268   5.895791   6.587171
    34  C    7.782175   2.506561   4.546852   3.057198   3.169165
    35  H    7.675806   2.868536   4.563264   3.097946   3.421120
    36  H    7.604357   2.817119   4.481322   2.971410   2.587553
    37  H    8.855317   3.396379   5.598551   4.133363   4.180096
    38  C    2.955591   5.408665   3.733638   5.173135   5.946039
    39  H    3.702470   5.590410   4.192821   5.537687   6.498108
    40  H    3.732242   5.603183   4.206895   5.539088   6.173055
    41  H    2.627567   6.322882   4.381714   5.895533   6.585083
    42  C    2.976502   4.546400   2.507135   3.056913   3.169225
    43  H    3.777062   4.467906   2.811454   2.957182   2.575649
    44  H    3.686576   4.578063   2.877302   3.114312   3.440731
    45  H    2.692692   5.597164   3.395990   4.131833   4.173192
                   16         17         18         19         20
    16  F    0.000000
    17  C    5.479580   0.000000
    18  C    6.475982   1.433996   0.000000
    19  C    6.176971   1.433871   2.463430   0.000000
    20  C    7.785934   2.437872   1.361905   2.826324   0.000000
    21  H    6.323471   2.175631   1.090998   3.445889   2.131548
    22  C    7.536860   2.438378   2.826867   1.362365   2.490118
    23  H    5.773079   2.175687   3.446035   1.091044   3.916879
    24  C    8.280421   2.819509   2.421885   2.421964   1.439776
    25  H    8.606738   3.439052   2.147199   3.916358   1.090756
    26  H    8.208075   3.438862   3.916908   2.146703   3.469777
    27  N    9.589551   4.133308   3.614237   3.616587   2.385724
    28  H   10.085435   4.739914   4.451854   3.942421   3.322191
    29  H   10.212284   4.735752   3.935218   4.451375   2.583597
    30  C    5.998897   3.089384   3.531884   3.443380   4.165812
    31  H    6.545512   2.859039   2.844409   3.405802   3.345428
    32  H    6.238007   2.932405   3.617500   2.810333   4.079955
    33  H    6.632841   4.183827   4.527041   4.451429   5.040539
    34  C    3.061942   6.165531   6.898137   6.980321   8.149109
    35  H    2.599155   6.539720   7.436837   7.219152   8.697641
    36  H    3.123452   6.490885   7.084629   7.463305   8.381624
    37  H    4.124608   6.842199   7.512922   7.608217   8.696616
    38  C    5.999545   3.099802   3.513492   3.420933   4.118165
    39  H    6.239867   2.953516   3.613491   2.796271   4.048634
    40  H    6.547065   2.862894   2.819009   3.376723   3.285752
    41  H    6.632103   4.194276   4.505395   4.431180   4.986011
    42  C    3.060427   6.167226   6.885938   6.967136   8.123121
    43  H    3.103312   6.489258   7.074519   7.448962   8.361209
    44  H    2.614912   6.545782   7.432296   7.210006   8.680245
    45  H    4.127166   6.843348   7.493166   7.593847   8.659074
                   21         22         23         24         25
    21  H    0.000000
    22  C    3.917370   0.000000
    23  H    4.337175   2.131684   0.000000
    24  C    3.419884   1.439999   3.419931   0.000000
    25  H    2.486981   3.468971   5.007165   2.182951   0.000000
    26  H    5.007656   1.090703   2.485575   2.184495   4.355965
    27  N    4.511745   2.389123   4.514957   1.313804   2.625015
    28  H    5.416049   2.590923   4.669416   2.034724   3.642141
    29  H    4.660602   3.324041   5.416775   2.033577   2.377625
    30  C    3.872807   4.090414   3.729903   4.423208   4.889145
    31  H    3.124954   3.839248   3.992904   3.815163   3.930361
    32  H    4.230718   3.376794   2.960500   3.979172   4.936091
    33  H    4.799512   4.972097   4.673361   5.253637   5.656968
    34  C    6.611282   8.219931   6.761652   8.770442   8.836791
    35  H    7.243053   8.510643   6.844545   9.207000   9.465103
    36  H    6.643461   8.707885   7.337424   9.145607   8.988835
    37  H    7.232664   8.780296   7.406147   9.299791   9.346525
    38  C    3.866380   4.039209   3.717583   4.363030   4.833810
    39  H    4.236446   3.331757   2.954031   3.930802   4.898741
    40  H    3.116243   3.780609   3.974411   3.743803   3.863874
    41  H    4.788101   4.918860   4.664760   5.186667   5.589743
    42  C    6.604195   8.193380   6.752747   8.739140   8.804898
    43  H    6.638573   8.684267   7.324564   9.119983   8.964814
    44  H    7.244559   8.489183   6.837913   9.182863   9.443386
    45  H    7.216731   8.747858   7.399973   9.257996   9.299149
                   26         27         28         29         30
    26  H    0.000000
    27  N    2.632480   0.000000
    28  H    2.390407   1.018101   0.000000
    29  H    3.649377   1.018104   1.746584   0.000000
    30  C    4.775601   5.444963   5.932146   5.965365   0.000000
    31  H    4.652787   4.789454   5.409486   5.171094   1.101773
    32  H    3.896996   4.962525   5.294632   5.628071   1.102012
    33  H    5.549193   6.141066   6.576081   6.609402   1.099426
    34  C    8.949196  10.023112  10.584040  10.540706   5.142022
    35  H    9.161241  10.476670  10.971163  11.068629   5.730974
    36  H    9.514320  10.411256  11.044732  10.861282   5.767322
    37  H    9.480826  10.506065  11.053617  11.002409   5.337833
    38  C    4.715266   5.373794   5.858115   5.893027   6.151786
    39  H    3.839122   4.902985   5.229553   5.569872   5.916014
    40  H    4.587335   4.708436   5.327678   5.088972   5.920264
    41  H    5.484248   6.057607   6.489058   6.521725   7.251201
    42  C    8.916602   9.984121  10.542560  10.499482   7.874532
    43  H    9.485401  10.380072  11.011012  10.829218   7.945728
    44  H    9.132960  10.445195  10.936228  11.035989   8.009134
    45  H    9.442033  10.453634  10.999309  10.945184   8.799915
                   31         32         33         34         35
    31  H    0.000000
    32  H    1.771846   0.000000
    33  H    1.772715   1.772311   0.000000
    34  C    5.788057   5.762028   5.301877   0.000000
    35  H    6.469610   6.186287   5.940704   1.100543   0.000000
    36  H    6.256896   6.466790   5.996082   1.100519   1.770094
    37  H    6.024995   6.018298   5.269642   1.097504   1.783431
    38  C    5.925968   5.905365   7.251132   7.878271   8.001040
    39  H    5.781588   5.481641   6.998431   8.060657   8.127739
    40  H    5.505640   5.762984   7.005922   8.087805   8.353162
    41  H    7.010800   6.989444   8.350538   8.742424   8.807933
    42  C    8.084329   8.051813   8.740908   5.787920   5.524964
    43  H    8.119410   8.268258   8.748115   5.412492   5.260171
    44  H    8.361130   8.129637   8.818815   5.544998   5.083857
    45  H    8.949882   8.932149   9.707235   6.877865   6.599776
                   36         37         38         39         40
    36  H    0.000000
    37  H    1.784186   0.000000
    38  C    7.958241   8.804850   0.000000
    39  H    8.285472   8.940843   1.102000   0.000000
    40  H    8.130466   8.956095   1.101707   1.771864   0.000000
    41  H    8.758522   9.710046   1.099421   1.772060   1.772559
    42  C    5.429894   6.878809   5.140325   5.757639   5.790944
    43  H    4.868503   6.471254   5.771166   6.466764   6.266753
    44  H    5.300910   6.617988   5.724452   6.176193   6.469018
    45  H    6.484957   7.966096   5.334827   6.013999   6.024553
                   41         42         43         44         45
    41  H    0.000000
    42  C    5.297087   0.000000
    43  H    5.998287   1.100390   0.000000
    44  H    5.929064   1.100580   1.770415   0.000000
    45  H    5.263470   1.097530   1.784256   1.782711   0.000000
 Stoichiometry    C19H20BF2N3
 Framework group  C1[X(C19H20BF2N3)]
 Deg. of freedom   129
 Full point group                 C1      NOp   1
 Largest Abelian subgroup         C1      NOp   1
 Largest concise Abelian subgroup C1      NOp   1
                         Standard orientation:                         
 ---------------------------------------------------------------------
 Center     Atomic      Atomic             Coordinates (Angstroms)
 Number     Number       Type             X           Y           Z
 ---------------------------------------------------------------------
      1          6           0        0.389629   -1.242409   -0.051560
      2          6           0        0.363070    1.231669   -0.052144
      3          6           0       -0.339990   -0.013170   -0.052490
      4          6           0       -0.051718   -2.582306   -0.084622
      5          6           0        1.123040   -3.375690   -0.063116
      6          6           0        2.221031   -2.526921   -0.016591
      7          1           0        1.165038   -4.463919   -0.082961
      8          6           0        2.169044    2.552178   -0.016172
      9          6           0       -0.104332    2.562904   -0.085062
     10          6           0        1.054664    3.379039   -0.062627
     11          1           0        1.075053    4.467903   -0.082084
     12          7           0        1.773187   -1.234500   -0.009127
     13          7           0        1.746871    1.251145   -0.009275
     14          5           0        2.662760    0.017683    0.072019
     15          9           0        3.391902    0.025244    1.279715
     16          9           0        3.594476    0.027634   -0.983421
     17          6           0       -1.798598   -0.029982   -0.015313
     18          6           0       -2.486639   -0.020407    1.242802
     19          6           0       -2.577815   -0.020544   -1.218940
     20          6           0       -3.847036   -0.012318    1.306356
     21          1           0       -1.893138   -0.020555    2.158243
     22          6           0       -3.939658   -0.012721   -1.182039
     23          1           0       -2.053883   -0.020890   -2.175952
     24          6           0       -4.616096   -0.009657    0.089189
     25          1           0       -4.378027   -0.005462    2.259115
     26          1           0       -4.538061   -0.006401   -2.093909
     27          7           0       -5.928854   -0.003044    0.141183
     28          1           0       -6.487216   -0.000644   -0.710143
     29          1           0       -6.416315   -0.000294    1.035001
     30          6           0       -1.458338   -3.097480   -0.153058
     31          1           0       -2.069949   -2.782766    0.707634
     32          1           0       -1.983989   -2.762937   -1.062015
     33          1           0       -1.453282   -4.196822   -0.165684
     34          6           0        3.675769   -2.866218    0.013826
     35          1           0        4.194152   -2.499483   -0.885051
     36          1           0        4.173341   -2.409320    0.882623
     37          1           0        3.805506   -3.954573    0.070090
     38          6           0       -1.519349    3.054003   -0.156118
     39          1           0       -2.034714    2.718463   -1.070566
     40          1           0       -2.130205    2.722537    0.698718
     41          1           0       -1.532452    4.153339   -0.160038
     42          6           0        3.616498    2.921398    0.012499
     43          1           0        4.128669    2.458961    0.869640
     44          1           0        4.137557    2.584046   -0.896328
     45          1           0        3.723220    4.011077    0.088541
 ---------------------------------------------------------------------
 Rotational constants (GHZ):           0.3584767           0.1767440           0.1274292
 Standard basis: def2SVP (5D, 7F)
 There are   475 symmetry adapted cartesian basis functions of A   symmetry.
 There are   450 symmetry adapted basis functions of A   symmetry.
   450 basis functions,   765 primitive gaussians,   475 cartesian basis functions
    89 alpha electrons       89 beta electrons
       nuclear repulsion energy      2219.5431391730 Hartrees.
 NAtoms=   45 NActive=   45 NUniq=   45 SFac= 1.00D+00 NAtFMM=   60 NAOKFM=F Big=F
 Integral buffers will be    131072 words long.
 Regular integral format.
 Two-electron integral symmetry is turned on.
 Force inversion solution in PCM.
 ------------------------------------------------------------------------------
 Polarizable Continuum Model (PCM)
 =================================
 Model                : PCM.
 Atomic radii         : SMD-Coulomb.
 Polarization charges : Total charges.
 Charge compensation  : None.
 Solution method      : Matrix inversion.
 Cavity type          : VdW (van der Waals Surface) (Alpha=1.000).
 Cavity algorithm     : GePol (No added spheres)
                        Default sphere list used, NSphG=   45.
                        Lebedev-Laikov grids with approx.  5.0 points / Ang**2.
                        Smoothing algorithm: York/Karplus (Gamma=1.0000).
                        Polarization charges: spherical gaussians, with
                                              point-specific exponents (IZeta= 3).
                        Self-potential: point-specific (ISelfS= 7).
                        Self-field    : sphere-specific E.n sum rule (ISelfD= 2).
 1st derivatives      : Analytical E(r).r(x)/FMM algorithm (CHGder, D1EAlg=3).
                        Cavity 1st derivative terms included.
 2nd derivatives      : Analytical E(r).r(xy)/FMM algorithm (CHGder, D2EAlg=3).
                        Cavity 2nd derivative terms included.
 Solvent              : Ethanol, Eps=  24.852000 Eps(inf)=   1.852593
 ------------------------------------------------------------------------------
 ------------------------------------------------------------------------------
 Atomic radii for non-electrostatic terms: SMD-CDS.
 ------------------------------------------------------------------------------
 Nuclear repulsion after PCM non-electrostatic terms =     2219.5406885723 Hartrees.
 One-electron integrals computed using PRISM.
   1 Symmetry operations used in ECPInt.
 ECPInt:  NShTT=   22155 NPrTT=   80585 LenC2=   19750 LenP2D=   49268.
 LDataN:  DoStor=T MaxTD1= 4 Len=   56
 NBasis=   450 RedAO= T EigKep=  2.70D-04  NBF=   450
 NBsUse=   450 1.00D-06 EigRej= -1.00D+00 NBFU=   450
 ExpMin= 8.36D-02 ExpMax= 2.89D+03 ExpMxC= 4.35D+02 IAcc=3 IRadAn=         5 AccDes= 0.00D+00
 Harris functional with IExCor= 1009 and IRadAn=       5 diagonalized for initial guess.
 HarFok:  IExCor= 1009 AccDes= 0.00D+00 IRadAn=         5 IDoV= 1 UseB2=F ITyADJ=14
 ICtDFT=  3500011 ScaDFX=  1.000000  1.000000  1.000000  1.000000
 FoFCou: FMM=F IPFlag=           0 FMFlag=      100000 FMFlg1=           0
         NFxFlg=           0 DoJE=T BraDBF=F KetDBF=T FulRan=T
         wScrn=  0.000000 ICntrl=       500 IOpCl=  0 I1Cent=   200000004 NGrid=           0
         NMat0=    1 NMatS0=      1 NMatT0=    0 NMatD0=    1 NMtDS0=    0 NMtDT0=    0
 Petite list used in FoFCou.
 Requested convergence on RMS density matrix=1.00D-08 within 128 cycles.
 Requested convergence on MAX density matrix=1.00D-06.
 Requested convergence on             energy=1.00D-06.
 No special actions if energy rises.
 Inv3:  Mode=1 IEnd=    31453932.
 Iteration    1 A*A^-1 deviation from unit magnitude is 1.02D-14 for     79.
 Iteration    1 A*A^-1 deviation from orthogonality  is 5.29D-15 for   1194    457.
 Iteration    1 A^-1*A deviation from unit magnitude is 1.02D-14 for   1132.
 Iteration    1 A^-1*A deviation from orthogonality  is 4.91D-15 for   1574   1536.
 Error on total polarization charges =  0.04816
 SCF Done:  E(RM062X) =  -1123.81498231     A.U. after   13 cycles
            NFock= 13  Conv=0.51D-08     -V/T= 2.0103
 SMD-CDS (non-electrostatic) energy       (kcal/mol) =      -1.54
 (included in total energy above)
 DoSCS=F DFT=T ScalE2(SS,OS)=  1.000000  1.000000
 ExpMin= 8.36D-02 ExpMax= 2.89D+03 ExpMxC= 4.35D+02 IAcc=3 IRadAn=         5 AccDes= 0.00D+00
 HarFok:  IExCor=  205 AccDes= 0.00D+00 IRadAn=         5 IDoV=-2 UseB2=F ITyADJ=14
 ICtDFT= 12500011 ScaDFX=  1.000000  1.000000  1.000000  1.000000
 GSVD:  LWork=        -825 too small for GESVD, short by        3500 words or        3500 for optimal perf.
 Range of M.O.s used for correlation:    26   450
 NBasis=   450 NAE=    89 NBE=    89 NFC=    25 NFV=     0
 NROrb=    425 NOA=    64 NOB=    64 NVA=   361 NVB=   361

 **** Warning!!: The largest alpha MO coefficient is  0.13079937D+02

 NEqPCM:  Using equilibrium solvation (IEInf=0, Eps=  24.8520, EpsInf=   1.8526)
 Orbital symmetries:
       Occupied  (A) (A) (A) (A) (A) (A) (A) (A) (A) (A) (A) (A)
                 (A) (A) (A) (A) (A) (A) (A) (A) (A) (A) (A) (A)
                 (A) (A) (A) (A) (A) (A) (A) (A) (A) (A) (A) (A)
                 (A) (A) (A) (A) (A) (A) (A) (A) (A) (A) (A) (A)
                 (A) (A) (A) (A) (A) (A) (A) (A) (A) (A) (A) (A)
                 (A) (A) (A) (A) (A) (A) (A) (A) (A) (A) (A) (A)
                 (A) (A) (A) (A) (A) (A) (A) (A) (A) (A) (A) (A)
                 (A) (A) (A) (A) (A)
       Virtual   (A) (A) (A) (A) (A) (A) (A) (A) (A) (A) (A) (A)
                 (A) (A) (A) (A) (A) (A) (A) (A) (A) (A) (A) (A)
                 (A) (A) (A) (A) (A) (A) (A) (A) (A) (A) (A) (A)
                 (A) (A) (A) (A) (A) (A) (A) (A) (A) (A) (A) (A)
                 (A) (A) (A) (A) (A) (A) (A) (A) (A) (A) (A) (A)
                 (A) (A) (A) (A) (A) (A) (A) (A) (A) (A) (A) (A)
                 (A) (A) (A) (A) (A) (A) (A) (A) (A) (A) (A) (A)
                 (A) (A) (A) (A) (A) (A) (A) (A) (A) (A) (A) (A)
                 (A) (A) (A) (A) (A) (A) (A) (A) (A) (A) (A) (A)
                 (A) (A) (A) (A) (A) (A) (A) (A) (A) (A) (A) (A)
                 (A) (A) (A) (A) (A) (A) (A) (A) (A) (A) (A) (A)
                 (A) (A) (A) (A) (A) (A) (A) (A) (A) (A) (A) (A)
                 (A) (A) (A) (A) (A) (A) (A) (A) (A) (A) (A) (A)
                 (A) (A) (A) (A) (A) (A) (A) (A) (A) (A) (A) (A)
                 (A) (A) (A) (A) (A) (A) (A) (A) (A) (A) (A) (A)
                 (A) (A) (A) (A) (A) (A) (A) (A) (A) (A) (A) (A)
                 (A) (A) (A) (A) (A) (A) (A) (A) (A) (A) (A) (A)
                 (A) (A) (A) (A) (A) (A) (A) (A) (A) (A) (A) (A)
                 (A) (A) (A) (A) (A) (A) (A) (A) (A) (A) (A) (A)
                 (A) (A) (A) (A) (A) (A) (A) (A) (A) (A) (A) (A)
                 (A) (A) (A) (A) (A) (A) (A) (A) (A) (A) (A) (A)
                 (A) (A) (A) (A) (A) (A) (A) (A) (A) (A) (A) (A)
                 (A) (A) (A) (A) (A) (A) (A) (A) (A) (A) (A) (A)
                 (A) (A) (A) (A) (A) (A) (A) (A) (A) (A) (A) (A)
                 (A) (A) (A) (A) (A) (A) (A) (A) (A) (A) (A) (A)
                 (A) (A) (A) (A) (A) (A) (A) (A) (A) (A) (A) (A)
                 (A) (A) (A) (A) (A) (A) (A) (A) (A) (A) (A) (A)
                 (A) (A) (A) (A) (A) (A) (A) (A) (A) (A) (A) (A)
                 (A) (A) (A) (A) (A) (A) (A) (A) (A) (A) (A) (A)
                 (A) (A) (A) (A) (A) (A) (A) (A) (A) (A) (A) (A)
                 (A)
    20 initial guesses have been made.
 Convergence on wavefunction:    0.000001000000000
 Iteration     1 Dimension    20 NMult     0 NNew     20
 CISAX will form    20 AO SS matrices at one time.
 Iteration     2 Dimension    30 NMult    20 NNew     10
 Iteration     3 Dimension    40 NMult    30 NNew     10
 Iteration     4 Dimension    50 NMult    40 NNew     10
 Iteration     5 Dimension    60 NMult    50 NNew     10
 Iteration     6 Dimension    70 NMult    60 NNew     10
 Iteration     7 Dimension    80 NMult    70 NNew     10
 No map to state      5
 Iteration     8 Dimension    90 NMult    80 NNew     10
 Iteration     9 Dimension    98 NMult    90 NNew      8
 Iteration    10 Dimension   102 NMult    98 NNew      4
 Iteration    11 Dimension   104 NMult   102 NNew      2
 Iteration    12 Dimension   106 NMult   104 NNew      2
 Iteration    13 Dimension   108 NMult   106 NNew      2
 Iteration    14 Dimension   110 NMult   108 NNew      2
 Iteration    15 Dimension   112 NMult   110 NNew      2
 Iteration    16 Dimension   114 NMult   112 NNew      2
 Iteration    17 Dimension   116 NMult   114 NNew      2
 ***********************************************************************
 Excited states from <AA,BB:AA,BB> singles matrix:
 ***********************************************************************
 
 Ground to excited state transition densities written to RWF  633
 Ground to excited state transition electric dipole moments (Au):
       state          X           Y           Z        Dip. S.      Osc.
         1        -0.0002      0.3510      0.0023      0.1232      0.0069
         2        -0.0388      3.7219     -0.0017     13.8541      0.8733
         3        -0.0091      0.5932     -0.0008      0.3519      0.0311
         4        -0.8922     -0.0108     -0.0479      0.7985      0.0766
         5        -0.0769     -0.0009     -1.1378      1.3005      0.1436
 Ground to excited state transition velocity dipole moments (Au):
       state          X           Y           Z        Dip. S.      Osc.
         1         0.0000     -0.0301     -0.0002      0.0009      0.0071
         2         0.0036     -0.3536      0.0002      0.1250      0.8815
         3         0.0012     -0.0825      0.0001      0.0068      0.0343
         4         0.1307      0.0016      0.0070      0.0171      0.0794
         5         0.0126      0.0002      0.2018      0.0409      0.1645
 Ground to excited state transition magnetic dipole moments (Au):
       state          X           Y           Z
         1         0.1541     -0.0021      0.0159
         2        -0.0539     -0.0007      0.4952
         3         0.0549      0.0006     -1.6721
         4         0.0011     -0.0280      0.0035
         5        -0.0099      0.5651     -0.0001
 Ground to excited state transition velocity quadrupole moments (Au):
       state          XX          YY          ZZ          XY          XZ          YZ
         1         0.0037     -0.0015      0.0000     -0.0744      0.0016      0.0108
         2         0.0176     -0.0047     -0.0002     -0.8383      0.0002      0.0394
         3        -0.0121      0.0145     -0.0004      0.5670     -0.0007      0.0313
         4         0.4613     -0.4249     -0.0013      0.0031     -0.0159      0.0006
         5        -0.1285      0.0031      0.0403     -0.0001     -1.4082     -0.0052
 <0|del|b> * <b|rxdel|0> + <0|del|b> * <b|delr+rdel|0>
 Rotatory Strengths (R) in cgs (10**-40 erg-esu-cm/Gauss)
       state          XX          YY          ZZ    R(velocity)    E-M Angle
         1         0.5039     -0.0617      0.0686      0.1703       90.00
         2         1.0345      0.7072     -0.5791      0.3875       89.95
         3        -0.5575     -0.2787      0.1130     -0.2411       90.06
         4         0.0645      0.5397     -0.0041      0.2000       88.11
         5         0.5751     -0.4340     -0.4071     -0.0886       90.00
 1/2[<0|r|b>*<b|rxdel|0> + (<0|rxdel|b>*<b|r|0>)*]
 Rotatory Strengths (R) in cgs (10**-40 erg-esu-cm/Gauss)
       state          XX          YY          ZZ     R(length)
         1         0.0181      0.5155     -0.0261      0.1692
         2        -1.4795      1.9291      0.6093      0.3530
         3         0.3522     -0.2348     -0.9269     -0.2698
         4         0.6936     -0.2145      0.1178      0.1990
         5        -0.5355      0.3657     -0.1055     -0.0918
  1/2[<0|del|b>*<b|r|0> + (<0|r|b>*<b|del|0>)*] (Au)
       state          X           Y           Z        Dip. S.   Osc.(frdel)
         1        -0.0000     -0.0106     -0.0000      0.0106      0.0070
         2        -0.0001     -1.3160     -0.0000      1.3161      0.8774
         3        -0.0000     -0.0490     -0.0000      0.0490      0.0326
         4        -0.1166     -0.0000     -0.0003      0.1170      0.0780
         5        -0.0010     -0.0000     -0.2296      0.2306      0.1537

 Excitation energies and oscillator strengths:
 
 Excited State   1:      Singlet-A      2.3020 eV  538.58 nm  f=0.0069  <S**2>=0.000
      83 -> 90        -0.10263
      89 -> 90         0.69557
 This state for optimization and/or second-order correction.
 Total Energy, E(TD-HF/TD-DFT) =  -1123.73038404    
 Copying the excited state density for this state as the 1-particle RhoCI density.
 
 Excited State   2:      Singlet-A      2.5729 eV  481.89 nm  f=0.8733  <S**2>=0.000
      88 -> 90         0.70193
 
 Excited State   3:      Singlet-A      3.6047 eV  343.95 nm  f=0.0311  <S**2>=0.000
      87 -> 90         0.69882
 
 Excited State   4:      Singlet-A      3.9161 eV  316.60 nm  f=0.0766  <S**2>=0.000
      86 -> 90         0.70391
 
 Excited State   5:      Singlet-A      4.5083 eV  275.01 nm  f=0.1436  <S**2>=0.000
      85 -> 92        -0.12431
      89 -> 91         0.68674
 SavETr:  write IOETrn=   770 NScale= 10 NData=  16 NLR=1 NState=    5 LETran=     100.
          IDoAtm=111111111111111111111111111111111111111111111
 NEqPCM:  Using equilibrium solvation (IEInf=0, Eps=  24.8520, EpsInf=   1.8526)
          Differentiating once with respect to electric field.
                with respect to dipole field.
          Differentiating once with respect to nuclear coordinates.
          There are     1 degrees of freedom in the 1st order CPHF.  IDoFFX=0 NUNeed=     1.
 LinEq1:  Iter=  0 NonCon=     1 RMS=3.84D-03 Max=1.44D-01 NDo=     1
 AX will form     1 AO Fock derivatives at one time.
 LinEq1:  Iter=  1 NonCon=     1 RMS=1.29D-03 Max=1.15D-01 NDo=     1
 LinEq1:  Iter=  2 NonCon=     1 RMS=8.14D-04 Max=8.28D-02 NDo=     1
 LinEq1:  Iter=  3 NonCon=     1 RMS=3.34D-04 Max=2.66D-02 NDo=     1
 LinEq1:  Iter=  4 NonCon=     1 RMS=1.68D-04 Max=8.36D-03 NDo=     1
 LinEq1:  Iter=  5 NonCon=     1 RMS=7.37D-05 Max=3.88D-03 NDo=     1
 LinEq1:  Iter=  6 NonCon=     1 RMS=3.07D-05 Max=1.86D-03 NDo=     1
 LinEq1:  Iter=  7 NonCon=     1 RMS=1.50D-05 Max=7.10D-04 NDo=     1
 LinEq1:  Iter=  8 NonCon=     1 RMS=6.64D-06 Max=3.05D-04 NDo=     1
 LinEq1:  Iter=  9 NonCon=     1 RMS=3.55D-06 Max=1.97D-04 NDo=     1
 LinEq1:  Iter= 10 NonCon=     1 RMS=1.59D-06 Max=8.42D-05 NDo=     1
 LinEq1:  Iter= 11 NonCon=     1 RMS=6.25D-07 Max=1.77D-05 NDo=     1
 LinEq1:  Iter= 12 NonCon=     1 RMS=2.59D-07 Max=1.34D-05 NDo=     1
 LinEq1:  Iter= 13 NonCon=     1 RMS=1.13D-07 Max=8.26D-06 NDo=     1
 LinEq1:  Iter= 14 NonCon=     1 RMS=6.13D-08 Max=5.10D-06 NDo=     1
 LinEq1:  Iter= 15 NonCon=     1 RMS=2.44D-08 Max=1.83D-06 NDo=     1
 LinEq1:  Iter= 16 NonCon=     1 RMS=9.11D-09 Max=4.94D-07 NDo=     1
 LinEq1:  Iter= 17 NonCon=     1 RMS=3.50D-09 Max=1.53D-07 NDo=     1
 LinEq1:  Iter= 18 NonCon=     1 RMS=1.81D-09 Max=1.15D-07 NDo=     1
 LinEq1:  Iter= 19 NonCon=     1 RMS=7.01D-10 Max=3.14D-08 NDo=     1
 LinEq1:  Iter= 20 NonCon=     1 RMS=2.91D-10 Max=1.19D-08 NDo=     1
 LinEq1:  Iter= 21 NonCon=     1 RMS=1.52D-10 Max=9.64D-09 NDo=     1
 LinEq1:  Iter= 22 NonCon=     1 RMS=6.23D-11 Max=4.59D-09 NDo=     1
 LinEq1:  Iter= 23 NonCon=     1 RMS=3.81D-11 Max=2.69D-09 NDo=     1
 LinEq1:  Iter= 24 NonCon=     0 RMS=1.26D-11 Max=9.23D-10 NDo=     1
 Linear equations converged to 1.000D-10 1.000D-09 after    24 iterations.
          There are     1 degrees of freedom in the 1st order CPHF.  IDoFFX=0 NUNeed=     1.
 End of Minotr F.D. properties file   721 does not exist.
 End of Minotr F.D. properties file   722 does not exist.
 End of Minotr F.D. properties file   788 does not exist.
   1 Symmetry operations used in ECPInt.
 ECPInt:  NShTT=   22155 NPrTT=   80585 LenC2=   19750 LenP2D=   49268.
 LDataN:  DoStor=T MaxTD1= 5 Len=  102
 Number of processors reduced to  32 by ecpmxn.
 Symmetrizing basis deriv contribution to polar:
 IMax=3 JMax=2 DiffMx= 0.00D+00
 G2DrvN: will do    46 centers at a time, making    1 passes.
 Calling FoFCou, ICntrl=  3107 FMM=F I1Cent=   0 AccDes= 0.00D+00.
 NEqPCM:  Using equilibrium solvation (IEInf=0, Eps=  24.8520, EpsInf=   1.8526)
 G2PCM: DoFxE=T DoFxN=T DoGrad=T DoDP/DQ/DG/TGxP=FFFF NFrqRd=   0 IEInf=0 SqF1=F DoCFld=F IF1Alg=4.
 G2DrvN: will do    46 centers at a time, making    1 passes.
 Calling FoFCou, ICntrl=  3107 FMM=F I1Cent=   0 AccDes= 0.00D+00.
 NEqPCM:  Using equilibrium solvation (IEInf=0, Eps=  24.8520, EpsInf=   1.8526)
 G2PCM: DoFxE=T DoFxN=F DoGrad=F DoDP/DQ/DG/TGxP=FFFF NFrqRd=   0 IEInf=0 SqF1=F DoCFld=F IF1Alg=4.
 G2DrvN: will do    46 centers at a time, making    1 passes.
 Calling FoFCou, ICntrl=  3107 FMM=F I1Cent=   0 AccDes= 0.00D+00.
 NEqPCM:  Using equilibrium solvation (IEInf=0, Eps=  24.8520, EpsInf=   1.8526)
 G2PCM: DoFxE=T DoFxN=F DoGrad=F DoDP/DQ/DG/TGxP=FFFF NFrqRd=   0 IEInf=0 SqF1=T DoCFld=F IF1Alg=4.
 End of G2Drv F.D. properties file   721 does not exist.
 End of G2Drv F.D. properties file   722 does not exist.
 End of G2Drv F.D. properties file   788 does not exist.
          IDoAtm=111111111111111111111111111111111111111111111
 NEqPCM:  Using equilibrium solvation (IEInf=0, Eps=  24.8520, EpsInf=   1.8526)
          Differentiating once with respect to electric field.
                with respect to dipole field.
          Differentiating once with respect to nuclear coordinates.
 CalDSu exits because no D1Ps are significant.
          There are   138 degrees of freedom in the 1st order CPHF.  IDoFFX=6 NUNeed=   138.
    135 vectors produced by pass  0 Test12= 3.21D-14 1.00D-09 XBig12= 3.63D+02 1.66D+01.
 AX will form   135 AO Fock derivatives at one time.
    135 vectors produced by pass  1 Test12= 3.21D-14 1.00D-09 XBig12= 2.36D+01 6.08D-01.
    135 vectors produced by pass  2 Test12= 3.21D-14 1.00D-09 XBig12= 3.07D-01 9.65D-02.
    135 vectors produced by pass  3 Test12= 3.21D-14 1.00D-09 XBig12= 2.27D-03 6.87D-03.
    135 vectors produced by pass  4 Test12= 3.21D-14 1.00D-09 XBig12= 1.51D-05 4.30D-04.
    135 vectors produced by pass  5 Test12= 3.21D-14 1.00D-09 XBig12= 5.32D-08 2.24D-05.
     86 vectors produced by pass  6 Test12= 3.21D-14 1.00D-09 XBig12= 1.44D-10 1.15D-06.
      9 vectors produced by pass  7 Test12= 3.21D-14 1.00D-09 XBig12= 3.70D-13 7.16D-08.
      3 vectors produced by pass  8 Test12= 3.21D-14 1.00D-09 XBig12= 1.05D-15 2.70D-09.
 InvSVY:  IOpt=1 It=  1 EMax= 8.88D-15
 Solved reduced A of dimension   908 with   138 vectors.
 Isotropic polarizability for W=    0.000000      409.80 Bohr**3.
 End of Minotr F.D. properties file   721 does not exist.
 End of Minotr F.D. properties file   722 does not exist.
 End of Minotr F.D. properties file   788 does not exist.
 This link is doing   138 degrees of freedom
 Form MO integral derivatives with frozen-active canonical formalism.
 CISSec: MDV=   17179849336
 Doing TD-HF/TD-DFT second derivatives, IDoFFX=6 IOneXC=4 IRadAn=         1.
 Frozen orbitals handled with amplitudes over full window.
 CISAX will form   138 AO SS matrices at one time.
    135 vectors produced by pass  0 Test12= 4.62D-14 1.00D-09 XBig12= 1.10D+02 6.28D+00.
 AX will form   135 AO Fock derivatives at one time.
    135 vectors produced by pass  1 Test12= 4.62D-14 1.00D-09 XBig12= 2.01D+02 1.23D+01.
    135 vectors produced by pass  2 Test12= 4.62D-14 1.00D-09 XBig12= 2.46D+00 5.21D-01.
    135 vectors produced by pass  3 Test12= 4.62D-14 1.00D-09 XBig12= 1.13D-02 1.37D-02.
    135 vectors produced by pass  4 Test12= 4.62D-14 1.00D-09 XBig12= 1.00D-04 1.06D-03.
    132 vectors produced by pass  5 Test12= 4.62D-14 1.00D-09 XBig12= 6.26D-07 8.91D-05.
     72 vectors produced by pass  6 Test12= 4.62D-14 1.00D-09 XBig12= 3.35D-09 7.14D-06.
     16 vectors produced by pass  7 Test12= 4.62D-14 1.00D-09 XBig12= 1.48D-11 3.84D-07.
      2 vectors produced by pass  8 Test12= 4.62D-14 1.00D-09 XBig12= 6.57D-14 2.43D-08.
      1 vectors produced by pass  9 Test12= 4.62D-14 1.00D-09 XBig12= 3.67D-16 1.54D-09.
 InvSVY:  IOpt=1 It=  1 EMax= 1.68D-14
 Solved reduced A of dimension   898 with   138 vectors.
 Tx.T = -1.37D-04 for pert.     1
 Tx.T = -6.63D-06 for pert.    52
 Tx.T =  3.80D-06 for pert.    55
 Tx.T = -3.30D-06 for pert.    12
 Tx.T = -3.22D-06 for pert.     2
 Tx.T =  3.20D-06 for pert.     9
 Tx.T = -2.92D-06 for pert.    57
 Tx.T =  2.82D-06 for pert.    58
 Tx.T = -2.76D-06 for pert.     8
 Tx.T =  2.65D-06 for pert.     5
 SavDET:  read IOETrn=   770 NScale= 10 NData=  16 NLR=1 NState=    5 NDeriv=    0 LETran=     100.
 SavDET: write IOETrn=   770 NScale= 10 NData=  16 NLR=1 NState=    5 NDeriv=  138 LETran=    2308.
 TDDxLx will form   138 C1x/S1x matrices at one time.
 Interchange theorem applied.
 D1PCM: PCM CHGder 1st derivatives, ID1Alg=3 FixD1E=F DoIter=F DoCFld=F I1PDM=6.

 **********************************************************************

            Population analysis using the SCF density.

 **********************************************************************

 Orbital symmetries:
       Occupied  (A) (A) (A) (A) (A) (A) (A) (A) (A) (A) (A) (A)
                 (A) (A) (A) (A) (A) (A) (A) (A) (A) (A) (A) (A)
                 (A) (A) (A) (A) (A) (A) (A) (A) (A) (A) (A) (A)
                 (A) (A) (A) (A) (A) (A) (A) (A) (A) (A) (A) (A)
                 (A) (A) (A) (A) (A) (A) (A) (A) (A) (A) (A) (A)
                 (A) (A) (A) (A) (A) (A) (A) (A) (A) (A) (A) (A)
                 (A) (A) (A) (A) (A) (A) (A) (A) (A) (A) (A) (A)
                 (A) (A) (A) (A) (A)
       Virtual   (A) (A) (A) (A) (A) (A) (A) (A) (A) (A) (A) (A)
                 (A) (A) (A) (A) (A) (A) (A) (A) (A) (A) (A) (A)
                 (A) (A) (A) (A) (A) (A) (A) (A) (A) (A) (A) (A)
                 (A) (A) (A) (A) (A) (A) (A) (A) (A) (A) (A) (A)
                 (A) (A) (A) (A) (A) (A) (A) (A) (A) (A) (A) (A)
                 (A) (A) (A) (A) (A) (A) (A) (A) (A) (A) (A) (A)
                 (A) (A) (A) (A) (A) (A) (A) (A) (A) (A) (A) (A)
                 (A) (A) (A) (A) (A) (A) (A) (A) (A) (A) (A) (A)
                 (A) (A) (A) (A) (A) (A) (A) (A) (A) (A) (A) (A)
                 (A) (A) (A) (A) (A) (A) (A) (A) (A) (A) (A) (A)
                 (A) (A) (A) (A) (A) (A) (A) (A) (A) (A) (A) (A)
                 (A) (A) (A) (A) (A) (A) (A) (A) (A) (A) (A) (A)
                 (A) (A) (A) (A) (A) (A) (A) (A) (A) (A) (A) (A)
                 (A) (A) (A) (A) (A) (A) (A) (A) (A) (A) (A) (A)
                 (A) (A) (A) (A) (A) (A) (A) (A) (A) (A) (A) (A)
                 (A) (A) (A) (A) (A) (A) (A) (A) (A) (A) (A) (A)
                 (A) (A) (A) (A) (A) (A) (A) (A) (A) (A) (A) (A)
                 (A) (A) (A) (A) (A) (A) (A) (A) (A) (A) (A) (A)
                 (A) (A) (A) (A) (A) (A) (A) (A) (A) (A) (A) (A)
                 (A) (A) (A) (A) (A) (A) (A) (A) (A) (A) (A) (A)
                 (A) (A) (A) (A) (A) (A) (A) (A) (A) (A) (A) (A)
                 (A) (A) (A) (A) (A) (A) (A) (A) (A) (A) (A) (A)
                 (A) (A) (A) (A) (A) (A) (A) (A) (A) (A) (A) (A)
                 (A) (A) (A) (A) (A) (A) (A) (A) (A) (A) (A) (A)
                 (A) (A) (A) (A) (A) (A) (A) (A) (A) (A) (A) (A)
                 (A) (A) (A) (A) (A) (A) (A) (A) (A) (A) (A) (A)
                 (A) (A) (A) (A) (A) (A) (A) (A) (A) (A) (A) (A)
                 (A) (A) (A) (A) (A) (A) (A) (A) (A) (A) (A) (A)
                 (A) (A) (A) (A) (A) (A) (A) (A) (A) (A) (A) (A)
                 (A) (A) (A) (A) (A) (A) (A) (A) (A) (A) (A) (A)
                 (A)
 The electronic state is 1-A.
 Alpha  occ. eigenvalues --  -25.19614 -25.19538 -14.78046 -14.78042 -14.76520
 Alpha  occ. eigenvalues --  -10.61349 -10.60422 -10.60322 -10.60311 -10.58885
 Alpha  occ. eigenvalues --  -10.58868 -10.57356 -10.57352 -10.56105 -10.56095
 Alpha  occ. eigenvalues --  -10.55713 -10.55059 -10.55058 -10.54795 -10.54789
 Alpha  occ. eigenvalues --  -10.54727 -10.54722 -10.54468 -10.54457  -7.13086
 Alpha  occ. eigenvalues --   -1.28231  -1.24667  -1.08857  -1.07002  -1.03091
 Alpha  occ. eigenvalues --   -0.94603  -0.90076  -0.89056  -0.88265  -0.84990
 Alpha  occ. eigenvalues --   -0.83739  -0.83507  -0.78772  -0.78469  -0.78206
 Alpha  occ. eigenvalues --   -0.74894  -0.70492  -0.69027  -0.68516  -0.66170
 Alpha  occ. eigenvalues --   -0.63574  -0.62578  -0.62230  -0.60200  -0.59997
 Alpha  occ. eigenvalues --   -0.58987  -0.58204  -0.56784  -0.55203  -0.54295
 Alpha  occ. eigenvalues --   -0.52058  -0.51766  -0.51208  -0.50039  -0.49331
 Alpha  occ. eigenvalues --   -0.49228  -0.48918  -0.48873  -0.48008  -0.47753
 Alpha  occ. eigenvalues --   -0.47736  -0.47278  -0.46130  -0.46109  -0.45930
 Alpha  occ. eigenvalues --   -0.45893  -0.45789  -0.45547  -0.44459  -0.44223
 Alpha  occ. eigenvalues --   -0.43613  -0.43570  -0.42698  -0.42220  -0.41162
 Alpha  occ. eigenvalues --   -0.39811  -0.39406  -0.36887  -0.33398  -0.31760
 Alpha  occ. eigenvalues --   -0.30741  -0.29742  -0.25284  -0.23835
 Alpha virt. eigenvalues --   -0.07713   0.02729   0.03616   0.07126   0.08468
 Alpha virt. eigenvalues --    0.10344   0.11043   0.11692   0.12189   0.12736
 Alpha virt. eigenvalues --    0.13178   0.13280   0.13955   0.14692   0.14871
 Alpha virt. eigenvalues --    0.15317   0.16877   0.16966   0.17321   0.17807
 Alpha virt. eigenvalues --    0.19458   0.20404   0.20503   0.20577   0.20605
 Alpha virt. eigenvalues --    0.21003   0.21133   0.21746   0.22430   0.23048
 Alpha virt. eigenvalues --    0.25190   0.25570   0.26120   0.26379   0.26636
 Alpha virt. eigenvalues --    0.27684   0.28731   0.28945   0.29987   0.30322
 Alpha virt. eigenvalues --    0.31624   0.32735   0.33388   0.34594   0.34717
 Alpha virt. eigenvalues --    0.35299   0.37409   0.38565   0.38784   0.40114
 Alpha virt. eigenvalues --    0.40682   0.41838   0.42402   0.42802   0.43536
 Alpha virt. eigenvalues --    0.43721   0.45066   0.45657   0.46081   0.46527
 Alpha virt. eigenvalues --    0.47048   0.47897   0.47988   0.48124   0.48509
 Alpha virt. eigenvalues --    0.49983   0.50229   0.50567   0.51818   0.51886
 Alpha virt. eigenvalues --    0.53637   0.53861   0.53988   0.54675   0.55316
 Alpha virt. eigenvalues --    0.55572   0.56340   0.56998   0.59343   0.60568
 Alpha virt. eigenvalues --    0.60969   0.61575   0.61804   0.62384   0.62710
 Alpha virt. eigenvalues --    0.62939   0.64020   0.65895   0.66464   0.67071
 Alpha virt. eigenvalues --    0.68266   0.68677   0.69623   0.69886   0.70428
 Alpha virt. eigenvalues --    0.70622   0.70854   0.71480   0.72260   0.72324
 Alpha virt. eigenvalues --    0.72627   0.72859   0.73509   0.73833   0.74211
 Alpha virt. eigenvalues --    0.74430   0.74638   0.74756   0.75545   0.75804
 Alpha virt. eigenvalues --    0.76815   0.77214   0.77354   0.77593   0.77660
 Alpha virt. eigenvalues --    0.79062   0.79151   0.79188   0.79796   0.80420
 Alpha virt. eigenvalues --    0.80556   0.80904   0.82107   0.82465   0.82883
 Alpha virt. eigenvalues --    0.83648   0.84874   0.85201   0.85871   0.86982
 Alpha virt. eigenvalues --    0.88449   0.88879   0.90176   0.90868   0.91695
 Alpha virt. eigenvalues --    0.94132   0.94826   0.95499   0.95810   0.97933
 Alpha virt. eigenvalues --    0.97988   1.00492   1.01297   1.04456   1.05099
 Alpha virt. eigenvalues --    1.06284   1.09139   1.11604   1.12313   1.12646
 Alpha virt. eigenvalues --    1.13714   1.16682   1.17025   1.18032   1.20460
 Alpha virt. eigenvalues --    1.21056   1.21615   1.21738   1.23258   1.23320
 Alpha virt. eigenvalues --    1.25898   1.27937   1.28253   1.28425   1.28958
 Alpha virt. eigenvalues --    1.30516   1.31440   1.32047   1.32525   1.34069
 Alpha virt. eigenvalues --    1.35090   1.35221   1.37227   1.37306   1.38031
 Alpha virt. eigenvalues --    1.38223   1.39136   1.41582   1.41744   1.43684
 Alpha virt. eigenvalues --    1.44598   1.45903   1.46165   1.48464   1.50067
 Alpha virt. eigenvalues --    1.51829   1.53711   1.56402   1.56438   1.57247
 Alpha virt. eigenvalues --    1.58522   1.58768   1.59352   1.60715   1.61157
 Alpha virt. eigenvalues --    1.61279   1.62690   1.62902   1.64105   1.64891
 Alpha virt. eigenvalues --    1.66939   1.70134   1.70180   1.70705   1.72362
 Alpha virt. eigenvalues --    1.72441   1.72810   1.72927   1.73765   1.74743
 Alpha virt. eigenvalues --    1.76427   1.77828   1.78264   1.78546   1.78675
 Alpha virt. eigenvalues --    1.78828   1.79919   1.80777   1.81238   1.81692
 Alpha virt. eigenvalues --    1.82023   1.82136   1.82192   1.82938   1.84543
 Alpha virt. eigenvalues --    1.84951   1.85245   1.85522   1.85964   1.86665
 Alpha virt. eigenvalues --    1.86866   1.87978   1.88892   1.89058   1.89966
 Alpha virt. eigenvalues --    1.90693   1.91115   1.91368   1.91652   1.91948
 Alpha virt. eigenvalues --    1.94582   1.96211   1.97749   1.98045   1.99249
 Alpha virt. eigenvalues --    1.99534   2.00339   2.01493   2.01637   2.02063
[...]
 0.00005775,0.00033386,-0.00584412,-0.00751175,0.00013428,0.00061588,0.
 00006547,0.00034162,-0.00037706,-0.00109146,0.00003876,-0.00025294,-0.
 00106395,-0.00015673,-0.00082206,0.00011778,0.00051974,0.00066316,-0.0
 0026768,-0.00041238,0.00039385,0.00014294,0.00027662,-0.00044560,0.000
 01907,-0.00027168,0.00001215,-0.00000078,-0.00000605,-0.00029941,-0.00
 001067,0.00023371,-0.00000239,-0.00000086,-0.00000122,0.00057634,-0.00
 000488,0.00010572,0.00000054,0.00003066,-0.00000372,0.00000290,-0.0000
 1479,-0.00000230,-0.00056193,0.00000713,-0.00000576,0.00001970,-0.0000
 0312,0.00005004,0.00001755,0.00000153,-0.00005178,-0.00000042,-0.00004
 038,0.00017282,0.00000788,-0.00005269,-0.00006583,0.00000957,0.0000883
 7,-0.00005009,0.00002189,0.00000372,-0.00004665,-0.00006307,-0.0000626
 4,-0.00005666,-0.00000063,0.00001834,-0.00000681,-0.00003339,0.0000417
 1,-0.00000247,-0.00001586,-0.00000245,-0.00001134,-0.00008881,-0.00036
 685,0.00017950,-0.00000798,-0.00010318,-0.00002078,-0.00002628,0.00001
 294,-0.00008245,0.00007085,-0.00002546,-0.00003724,0.52188947,0.000162
 87,0.00083081,0.00002331,0.00482948,-0.00459814,0.00059154,-0.00236283
 ,-0.00118159,0.00041600,0.00000384,-0.00041577,-0.00004633,-0.00035969
 ,-0.00010063,-0.00002849,-0.00004430,0.00055066,-0.00002701,-0.0000128
 1,0.00002595,0.00000811,-0.03449536,-0.09924034,0.00004681,0.00313019,
 -0.00146884,-0.00014561,0.01363751,0.01091080,-0.00007042,-0.00015084,
 0.00031011,0.00010064,-0.00030377,-0.00032739,-0.00032224,-0.04016479,
 -0.00681971,-0.00105691,0.00070495,0.00064743,0.00026827,-0.00079404,-
 0.00247196,0.00039937,-0.00072141,-0.00310845,-0.00013219,0.00016986,-
 0.00045162,-0.00025874,-0.00023338,0.00012966,0.00014778,-0.00013044,-
 0.00000969,-0.00008994,0.00015003,-0.00000558,0.00007436,-0.00000881,-
 0.00000549,0.00000878,0.00008734,0.00000557,-0.00005598,-0.00000199,-0
 .00000617,-0.00000574,-0.00016772,-0.00000414,-0.00005244,0.00000254,-
 0.00001509,0.00000254,0.00000025,0.00000138,0.00000010,0.00015733,-0.0
 0000592,0.00000654,-0.00000548,0.00000159,-0.00001373,-0.00000540,0.00
 000002,0.00001441,0.00002128,-0.00002502,-0.00007341,0.00002964,0.0000
 4908,0.00002285,0.00002862,-0.00001721,0.00003506,0.00000437,0.0000107
 7,0.00002077,0.00006169,-0.00008127,-0.00000016,-0.00007034,0.00001941
 ,0.00002995,-0.00005490,0.00002213,-0.00003360,-0.00000984,-0.00000528
 ,0.00000638,0.00040187,0.00088833,-0.00005174,0.00020235,0.00001524,0.
 00002462,0.00022859,-0.00002944,0.00003093,-0.00010236,0.00000188,0.00
 001431,-0.01279467,0.59852293,0.00001093,0.00062487,-0.00001377,0.0007
 3147,0.00000828,0.00227636,0.00003586,-0.00050009,0.00044446,0.0000280
 3,-0.00051224,0.00007759,-0.00047301,-0.00003823,-0.00005266,0.0001675
 4,0.00036928,-0.00002404,-0.00000411,0.00001262,-0.00000862,-0.0043457
 2,-0.00006656,-0.06622621,-0.00025116,0.00086099,0.00523535,-0.0015699
 0,-0.00071149,0.00567611,0.00022220,-0.00007274,-0.00352432,0.00016091
 ,-0.00018339,0.00014121,-0.00032821,-0.00058469,0.00009020,0.00031476,
 0.00044533,0.00094999,-0.00102381,-0.00118945,-0.00000043,0.00092117,0
 .00114523,-0.00041258,-0.00027763,-0.00001219,0.00032689,0.00046057,-0
 .00014550,-0.00025884,0.00020147,0.00017962,0.00017777,-0.00024731,0.0
 0004664,-0.00021757,0.00001376,0.00000052,0.00001759,-0.00019544,-0.00
 003445,0.00020000,-0.00000038,0.00000610,-0.00001622,0.00042446,-0.000
 00058,0.00004002,-0.00000326,0.00002307,0.00000833,-0.00000128,-0.0000
 3141,-0.00000610,-0.00044301,0.00000049,0.00000274,0.00002019,-0.00000
 196,0.00004751,0.00001717,0.00000313,-0.00004977,-0.00000332,-0.000049
 45,0.00019663,0.00002234,-0.00006024,-0.00007991,0.00002549,0.00009576
 ,-0.00005536,0.00002162,0.00000904,-0.00005136,-0.00005719,-0.00000779
 ,-0.00006310,0.00001076,-0.00001117,-0.00002071,-0.00003098,0.00002689
 ,-0.00001451,-0.00001213,0.00000939,-0.00002089,-0.00016063,0.00003995
 ,0.00104452,0.00028296,-0.00017310,0.00007411,-0.00030744,0.00017018,-
 0.00000228,0.00003517,-0.00001413,-0.00011893,-0.00026096,-0.00060005,
 0.55038207,-0.00005936,-0.00051104,-0.00001705,-0.00227245,0.00006587,
 0.00014115,0.00011949,0.00058599,-0.00012505,-0.00000734,0.00035559,0.
 00004127,0.00035671,0.00002689,0.00000637,-0.00001132,-0.00044675,0.00
 001901,0.00001340,-0.00002516,-0.00000673,-0.01789213,0.01471277,-0.02
 370847,-0.00121592,-0.00037284,0.00099223,-0.00115725,-0.00257607,-0.0
 0057368,0.00011168,0.00000437,-0.00041362,0.00010351,0.00017212,0.0002
 8086,0.00369341,0.00114479,0.00111554,-0.00157309,-0.00059141,-0.00163
 607,0.00074679,0.00113945,0.00075595,0.00030486,-0.00008505,0.00008496
 ,0.00016073,0.00003933,0.00013558,0.00010289,-0.00004542,-0.00012032,0
 .00000415,0.00007289,0.00007873,-0.00012587,0.00001169,-0.00008144,0.0
 0001133,0.00000311,-0.00000023,-0.00009462,-0.00000686,0.00007877,0.00
 000753,0.00000410,0.00000016,0.00025145,0.00000271,0.00001781,-0.00001
 358,0.00000435,0.00000140,-0.00001189,-0.00001162,-0.00000114,-0.00026
 498,0.00000467,0.00000381,0.00001635,-0.00000105,0.00003275,0.00001373
 ,0.00000038,-0.00003535,-0.00001059,0.00003339,0.00006041,-0.00003452,
 -0.00004264,-0.00002193,-0.00003254,0.00001219,-0.00002845,-0.00001052
 ,-0.00001686,-0.00001790,-0.00003391,0.00005453,-0.00002803,0.00005916
 ,-0.00002563,-0.00001125,0.00005784,-0.00002614,0.00002062,0.00001371,
 -0.00000560,0.00000060,-0.00005066,-0.00024769,0.00031121,-0.00004451,
 -0.00002583,-0.00001329,-0.00019726,0.00006175,-0.00001106,-0.00000043
 ,0.00002580,-0.00002977,-0.09960739,0.05214758,-0.09885294,0.11112271,
 -0.00004986,0.00004918,0.00004784,-0.00110407,-0.00047174,-0.00017462,
 0.00034688,0.00052423,-0.00026977,0.00000958,-0.00003780,0.00004527,-0
 .00000493,0.00002507,0.00000476,0.00009978,-0.00015359,0.00002111,0.00
 000783,-0.00000633,-0.00000776,-0.00281175,0.00388887,-0.00810757,-0.0
 0029191,-0.00006601,-0.00007482,-0.00026308,0.00041107,0.00035194,-0.0
 0006477,0.00005317,0.00013101,0.00020230,0.00020926,0.00038129,0.00126
 113,0.00010037,0.00035065,-0.00139452,-0.00035765,-0.00143825,0.000484
 93,-0.00007916,0.00103206,0.00024170,0.00024290,0.00006948,-0.00016246
 ,0.00004258,0.00021813,0.00023458,-0.00009833,-0.00015794,0.00011469,0
 .00008913,0.00010261,-0.00017054,0.00001332,-0.00011327,0.00000838,0.0
 0000216,-0.00000030,-0.00011348,-0.00000447,0.00009765,0.00000145,0.00
 000163,-0.00000259,0.00025365,0.00000073,0.00004227,-0.00000398,0.0000
 1013,0.00000007,-0.00000302,-0.00001193,-0.00000177,-0.00025732,0.0000
 0348,-0.00000183,0.00001192,-0.00000140,0.00002735,0.00001041,0.000000
 91,-0.00002816,0.00000067,-0.00000319,0.00007632,-0.00000420,-0.000029
 42,-0.00002938,-0.00000444,0.00003533,-0.00002620,0.00000624,-0.000001
 91,-0.00002207,-0.00004316,0.00002133,-0.00002685,0.00002875,-0.000012
 62,-0.00001515,0.00002635,-0.00001840,0.00001787,0.00000115,0.00000582
 ,-0.00000234,0.00001649,-0.00000513,0.00015417,0.00001394,-0.00003674,
 -0.00001563,-0.00003243,0.00002716,-0.00002248,0.00001146,-0.00000273,
 -0.00001644,0.05222262,-0.09583437,0.09264706,-0.05717824,0.09628234,-
 0.00007552,-0.00021362,-0.00000888,-0.00067103,0.00001406,-0.00015331,
 -0.00004132,0.00012789,0.00006376,0.00000734,0.00019149,-0.00001367,0.
 00017219,0.00003200,0.00001462,-0.00002239,-0.00020003,0.00000638,0.00
 000582,-0.00000315,-0.00000045,0.00015935,-0.00201296,0.00378710,-0.00
 001965,-0.00038933,-0.00020267,0.00111453,-0.00029188,-0.00052955,-0.0
 0000887,0.00001371,0.00011482,0.00009437,0.00015941,0.00009224,0.00016
 476,0.00025853,0.00053513,-0.00107478,-0.00069543,-0.00062592,0.000793
 12,0.00127817,-0.00026558,0.00010391,0.00038733,0.00023570,0.00007895,
 -0.00000381,-0.00001701,-0.00002844,0.00000679,0.00000602,-0.00002483,
 0.00000314,-0.00000361,0.00000550,-0.00000160,0.00000492,0.00000154,0.
 00000132,-0.00000020,0.00000172,-0.00000055,-0.00000297,0.00000183,0.0
 0000080,0.00000065,0.00000660,0.00000100,-0.00000417,-0.00000246,-0.00
 000080,0.00000055,-0.00000248,-0.00000039,0.00000008,-0.00000913,0.000
 00031,0.00000086,0.00000146,0.00000028,0.00000214,0.00000113,0.0000002
 6,-0.00000236,-0.00001010,0.00001418,-0.00000137,-0.00000691,-0.000006
 15,0.00000066,-0.00000608,-0.00000647,-0.00000036,-0.00000294,-0.00000
 362,0.00000129,-0.00000481,0.00003416,-0.00001382,0.00001358,-0.000011
 88,-0.00000734,0.00002057,-0.00001775,0.00002028,0.00000655,0.00000470
 ,0.00000472,0.00004112,-0.00001018,0.00004978,-0.00000006,0.00000273,-
 0.00000267,-0.00001039,0.00000137,-0.00000349,-0.00000225,0.00000268,0
 .00000012,-0.09882178,0.09206807,-0.21455081,0.10656618,-0.09999541,0.
 22640166,-0.00004554,-0.00081593,0.00000086,-0.00264417,0.00016666,-0.
 00044035,0.00001578,0.00074564,-0.00014363,-0.00002338,0.00059096,0.00
 000420,0.00057167,0.00003042,0.00002697,-0.00010972,-0.00058291,-0.000
 02565,0.00001356,-0.00003260,0.00000317,-0.01845928,0.01039096,0.02438
 433,-0.00114294,-0.00102385,-0.00104445,-0.00021292,-0.00197016,0.0004
 0228,0.00004084,0.00002227,0.00047762,-0.00000497,0.00017402,-0.000084
 56,0.00329211,0.00149195,-0.00056045,-0.00135281,-0.00022626,0.0010131
 9,0.00027839,-0.00005473,0.00001079,0.00079461,0.00097407,-0.00059154,
 0.00032636,0.00003087,-0.00000455,-0.00014052,0.00004025,0.00001960,-0
 .00010105,-0.00002308,-0.00000480,0.00000797,-0.00000496,0.00002570,0.
 00000658,0.00000291,-0.00000913,0.00000397,0.00000673,-0.00002392,0.00
 000617,0.00000167,0.00000613,0.00003767,0.00000275,-0.00000425,-0.0000
 1223,-0.00000696,-0.00000152,-0.00001224,0.00000249,0.00000220,-0.0000
 4442,0.00000428,0.00000115,0.00000675,-0.00000018,0.00001083,0.0000057
 9,-0.00000091,-0.00001072,-0.00000894,0.00005566,-0.00002441,-0.000044
 99,-0.00001602,0.00001369,-0.00004770,-0.00003270,-0.00000494,-0.00002
 256,-0.00002196,0.00000536,-0.00000057,0.00007095,0.00001285,0.0000614
 1,-0.00002466,-0.00001357,0.00005930,-0.00002676,0.00001334,0.00002011
 ,-0.00001187,-0.00000042,0.00003533,-0.00023708,-0.00026515,-0.0001889
 5,0.00005676,-0.00003285,-0.00004756,-0.00001179,0.00000466,-0.0000226
 8,0.00003439,0.00001986,-0.10045847,0.03877648,0.10661929,0.00644323,-
 0.00514204,-0.01156725,0.11208176,-0.00000512,-0.00010889,-0.00001500,
 -0.00125253,-0.00034132,-0.00023181,0.00029334,0.00062138,-0.00022252,
 0.00000713,0.00009837,-0.00000332,0.00011168,0.00002037,0.00000988,0.0
 0001904,-0.00019540,-0.00001657,0.00000597,-0.00000937,-0.00000128,-0.
 00274283,0.00246132,0.00804594,-0.00041679,-0.00039628,0.00020844,0.00
 038956,0.00047015,-0.00007942,-0.00002163,0.00003407,-0.00018769,0.000
 14606,0.00014269,-0.00001189,0.00112005,-0.00001303,-0.00011283,-0.001
 38570,-0.00006433,0.00085051,0.00027572,0.00016193,-0.00013059,0.00037
 129,0.00056734,-0.00065359,-0.00007061,0.00003632,0.00006450,0.0000600
 7,-0.00002512,-0.00005237,0.00003597,0.00000902,0.00003620,-0.00005799
 ,0.00000500,-0.00002496,0.00000262,0.00000074,-0.00000486,-0.00003882,
 0.00000267,0.00002195,0.00000174,0.00000165,0.00000369,0.00007884,0.00
 000104,0.00001160,-0.00000245,0.00000168,-0.00000200,-0.00000166,-0.00
 000092,0.00000105,-0.00007734,0.00000243,0.00000018,0.00000392,-0.0000
 0028,0.00000766,0.00000345,0.00000002,-0.00000854,0.00000120,0.0000111
 3,0.00001232,-0.00001064,-0.00000775,-0.00000242,-0.00000953,0.0000030
 5,-0.00000651,-0.00000101,-0.00000408,-0.00000272,-0.00001810,0.000020
 17,0.00001177,0.00002552,-0.00001811,-0.00001368,0.00002557,-0.0000120
 2,0.00001134,0.00000489,0.00000172,-0.00000296,0.00005396,-0.00001469,
 -0.00007959,-0.00003781,0.00000309,-0.00001286,-0.00000076,-0.00000029
 ,-0.00000125,-0.00000130,0.00000220,-0.00000550,0.03839128,-0.07089663
 ,-0.07216306,-0.00670506,0.00442549,0.01146200,-0.04231330,0.06932360,
 0.00007869,0.00017127,0.00000970,0.00047347,-0.00021964,-0.00021073,0.
 00008755,0.00000132,-0.00007836,-0.00000187,-0.00018452,-0.00000984,-0
 .00017579,-0.00002766,0.00000078,0.00005312,0.00019358,0.00000798,-0.0
 0000357,-0.00000052,-0.00000336,-0.00031239,0.00229533,0.00595228,0.00
 013683,0.00051957,-0.00028591,-0.00125643,0.00035206,-0.00061815,-0.00
 002555,0.00000726,0.00010655,-0.00011202,-0.00015318,0.00012181,0.0001
 3397,-0.00023947,0.00046454,0.00096746,0.00041756,-0.00073025,-0.00005
 418,-0.00004338,0.00023704,-0.00077596,-0.00138134,0.00014333,-0.00010
 228,0.00001298,0.00006390,0.00008621,-0.00003086,-0.00004743,0.0000498
 6,0.00002207,0.00002970,-0.00005555,0.00000125,-0.00003683,0.00000063,
 -0.00000071,0.00000036,-0.00003496,-0.00000117,0.00003139,-0.00000102,
 -0.00000094,-0.00000069,0.00006903,-0.00000173,0.00001475,0.00000088,0
 .00000311,-0.00000036,0.00000131,-0.00000259,-0.00000045,-0.00006737,0
 .00000111,-0.00000097,0.00000222,-0.00000072,0.00000595,0.00000194,-0.
 00000013,-0.00000621,0.00000715,-0.00001096,0.00002337,0.00000266,-0.0
 0000380,-0.00000796,0.00000374,0.00001505,-0.00000654,0.00000383,0.000
 00195,-0.00000557,-0.00000585,-0.00003023,-0.00002247,-0.00001376,0.00
 001437,0.00001670,-0.00001113,0.00001500,-0.00000627,-0.00000650,-0.00
 000490,0.00000369,-0.00002914,0.00001189,0.00006091,0.00001590,-0.0000
 1559,-0.00000970,0.00000943,-0.00000022,-0.00001009,0.00000388,-0.0000
 0322,-0.00000526,0.10502736,-0.07174322,-0.23557253,0.01097633,-0.0085
 1879,-0.01866951,-0.11414771,0.07792315,0.24875619,0.00007381,-0.00000
 924,0.00001017,0.00016846,-0.00160273,0.00007683,-0.00059673,0.0001687
 4,-0.00009740,0.00000516,0.00003931,0.00001577,0.00005776,-0.00003895,
 -0.00000111,-0.00003629,-0.00005802,0.00000212,0.00000071,-0.00001510,
 -0.00000248,-0.00039930,-0.03390053,-0.00194602,0.00014836,-0.00006512
 ,-0.00002054,0.00117656,0.00045737,0.00016449,-0.00007802,0.00035555,-
 0.00001378,0.00010443,-0.00017203,0.00005315,-0.00656297,-0.00070264,-
 0.00030691,-0.00125367,0.00076184,-0.00006944,0.00042025,0.00031417,0.
 00007255,0.00048758,0.00056669,-0.00001593,0.00010377,-0.00011050,0.00
 006853,0.00003764,-0.00000387,-0.00006029,-0.00000405,0.00005323,0.000
 04375,-0.00007710,0.00000645,-0.00005248,0.00000654,0.00000039,-0.0000
 0056,-0.00005874,-0.00000002,0.00005056,0.00000417,0.00000054,-0.00000
 067,0.00016338,0.00000118,0.00000879,-0.00000808,-0.00000133,0.0000005
 8,-0.00000764,-0.00000799,-0.00000039,-0.00017376,0.00000237,0.0000028
 5,0.00001103,-0.00000068,0.00002200,0.00000927,0.00000004,-0.00002317,
 0.00000501,0.00001124,0.00002619,-0.00001492,-0.00001402,-0.00000911,-
 0.00001497,0.00000805,-0.00001163,-0.00000478,-0.00000863,-0.00000750,
 -0.00001661,0.00000948,-0.00001219,0.00001972,-0.00000435,-0.00000664,
 0.00001369,-0.00000084,0.00000663,0.00000943,-0.00000481,-0.00000124,0
 .00007285,0.00008216,0.00002630,-0.00002156,-0.00000299,-0.00001191,-0
 .00002258,0.00001445,-0.00000414,-0.00003873,0.00001956,-0.00000933,-0
 .04846335,-0.02194350,-0.00189829,0.00100748,0.01348332,0.00305134,0.0
 0103926,0.01374210,-0.00100040,0.05270751,0.00010943,-0.00018392,-0.00
 000148,0.00014685,-0.00049749,-0.00000516,-0.00015082,0.00033531,-0.00
 005676,-0.00000739,0.00009151,0.00000757,0.00008122,-0.00003585,0.0000
 0163,-0.00004590,-0.00001540,0.00000015,-0.00000032,-0.00001479,-0.000
 00096,0.00182013,-0.00663462,-0.00001154,-0.00013661,0.00003326,0.0000
 9993,0.00098292,0.00114307,0.00015675,-0.00035868,0.00006438,-0.000112
 97,-0.00011721,-0.00019525,0.00000500,-0.00140616,0.00105734,-0.000254
 83,0.00026796,0.00095866,0.00002115,-0.00009358,-0.00046890,0.00013144
 ,-0.00005379,-0.00047455,-0.00009993,0.00006059,-0.00003780,0.00002955
 ,-0.00000149,-0.00000292,-0.00002909,-0.00001410,0.00000331,0.00002214
 ,-0.00003436,0.00000453,-0.00001457,0.00000384,-0.00000048,-0.00000237
 ,-0.00002794,0.00000287,0.00001584,0.00000333,-0.00000020,0.00000170,0
 .00007365,-0.00000005,0.00000180,-0.00000580,-0.00000015,-0.00000005,-
 0.00000536,-0.00000084,0.00000031,-0.00007792,0.00000153,0.00000167,0.
 00000511,-0.00000042,0.00000974,0.00000429,-0.00000033,-0.00001043,-0.
 00000023,0.00001197,0.00000721,-0.00001629,-0.00001026,-0.00000157,-0.
 00001631,-0.00000298,-0.00000650,-0.00000814,-0.00000910,-0.00000270,0
 .00000379,-0.00000474,-0.00000842,0.00001155,0.00000282,0.00000507,0.0
 0000637,0.00000582,-0.00000467,0.00000521,-0.00001154,0.00000014,0.000
 02547,-0.00000197,-0.00000339,-0.00003172,0.00000089,-0.00000705,-0.00
 003035,0.00000786,0.00000032,-0.00001384,0.00001257,-0.00000399,-0.026
 69528,-0.32581804,-0.01956051,-0.00173933,-0.00923275,-0.00220135,-0.0
 0109245,-0.00632016,0.00063959,0.02856966,0.34623779,0.00001028,0.0000
 4793,0.00002332,-0.00009620,-0.00008432,0.00042112,0.00003533,0.000044
 72,-0.00012995,0.00000269,-0.00005404,0.00001244,-0.00004859,-0.000003
 43,0.00000013,0.00003589,0.00003009,0.00000016,0.00000071,-0.00000101,
 -0.00000369,0.00054970,-0.00028786,-0.00253392,-0.00001635,0.00003596,
 -0.00015260,-0.00001842,0.00008182,-0.00003789,-0.00002601,0.00001126,
 0.00011219,0.00001193,-0.00001021,0.00014803,0.00012553,0.00002792,0.0
 0124605,-0.00008554,-0.00011146,-0.00095862,0.00035613,0.00082468,0.00
 005779,-0.00028132,-0.00086710,0.00021524,-0.00004765,0.00000463,0.000
 06502,0.00010270,-0.00004066,-0.00006166,0.00003528,0.00004458,0.00004
 000,-0.00006868,0.00000224,-0.00005303,0.00000431,0.00000180,0.0000014
 5,-0.00004587,-0.00000268,0.00004266,0.00000021,-0.00000057,-0.0000027
 9,0.00010888,-0.00000010,0.00001658,-0.00000106,0.00000457,0.00000107,
 -0.00000177,-0.00000585,-0.00000134,-0.00011183,0.00000084,-0.00000084
 ,0.00000531,-0.00000062,0.00001249,0.00000452,0.00000051,-0.00001219,-
 0.00000119,-0.00000420,0.00003478,0.00000039,-0.00001307,-0.00001373,0
 .00000021,0.00001599,-0.00001060,0.00000263,-0.00000048,-0.00000957,-0
 .00001136,-0.00000657,-0.00002165,-0.00000031,0.00000315,0.00000341,0.
 00000067,0.00000233,0.00000519,-0.00000106,-0.00000011,0.00000234,0.00
 001174,0.00000554,-0.00002542,-0.00001025,-0.00001240,-0.00001024,0.00
 001264,0.00000877,-0.00001127,0.00000190,0.00000128,-0.00000077,-0.002
 36689,-0.01955357,-0.04604795,0.00401207,0.02325049,0.00373621,-0.0040
 7223,-0.02463241,0.00029454,0.00188093,0.02124158,0.04360752\\-0.00002
 049,-0.00001279,-0.00082153,-0.00002125,0.00001226,-0.00081928,0.00005
 311,0.00083183,0.00245025,0.00000068,0.00000007,0.00000092,0.00000091,
 0.00000037,0.00000318,0.00000051,0.00000051,0.00000508,0.00000122,0.00
 000037,0.00000358,-0.00000060,0.00000077,0.00000378,-0.00000053,0.0000
 0002,-0.00000035,-0.00000061,0.00000032,0.00000166,-0.00000095,0.00000
 031,0.00000143,0.00000038,0.00000035,0.00000405,-0.00000050,0.00000028
 ,0.00000335,-0.00000038,0.00000066,0.00000526,-0.00000221,0.00000093,0
 .00000670,0.00000186,0.00000056,0.00000697,0.00000808,-0.00248271,-0.0
 0081099,-0.00001214,0.00082153,-0.00001563,-0.00000674,0.00082915,0.00
 000809,-0.00000235,-0.00000042,-0.00000645,-0.00000394,0.00000005,-0.0
 0000297,0.00000215,-0.00000106,-0.00000673,0.00000395,-0.00000092,-0.0
 0000327,-0.00000017,-0.00000124,-0.00000794,-0.00000413,-0.00000052,-0
 .00000752,0.00000377,-0.00000138,-0.00000777,-0.00000028,-0.00000137,-
 0.00001035,0.00000126,-0.00000165,-0.00001135,-0.00000191,-0.00000129,
 -0.00001119,0.00000059,-0.00000081,-0.00000146,-0.00000065,-0.00000008
 ,-0.00000269,0.00000255,-0.00000042,-0.00000252,0.00000124,-0.00000033
 ,-0.00000123,0.00000081,0.00000096,0.00000780,0.00000223,0.00000117,0.
 00000865,-0.00000106,0.00000147,0.00000864,0.00000075,0.00000091,0.000
 00819,-0.00000032,-0.00000047,-0.00000281,0.00000126,-0.00000097,-0.00
 000391,-0.00000207,-0.00000027,-0.00000398,-0.00000070,-0.00000032,-0.
 00000323,-0.00000087,0.00000082,0.00000641,-0.00000223,0.00000130,0.00
 000738,0.00000094,0.00000108,0.00000745,-0.00000115,0.00000097,0.00000
 633\\\@


 Fatherhood is pretending the present you love most is soap-on-a-rope.
 -- Bill Cosby
 Job cpu time:       2 days  8 hours 18 minutes 48.4 seconds.
 Elapsed time:       0 days  1 hours 25 minutes  2.8 seconds.
 File lengths (MBytes):  RWF=   3876 Int=      0 D2E=      0 Chk=     80 Scr=      1
 Normal termination of Gaussian 16 at Sun Jan 18 18:44:39 2026.
