 Entering Gaussian System, Link 0=g16
 Initial command:
 /home/users/ntu/xiaogan4/Softwares/g16/l1.exe "/scratch/users/ntu/xiaogan4/g16scratch/Gau-4000057.inp" -scrdir="/scratch/users/ntu/xiaogan4/g16scratch/"
 Entering Link 1 = /home/users/ntu/xiaogan4/Softwares/g16/l1.exe PID=   4000058.
  
 Copyright (c) 1988,1990,1992,1993,1995,1998,2003,2009,2016,
            Gaussian, Inc.  All Rights Reserved.
  
 This is part of the Gaussian(R) 16 program.  It is based on
 the Gaussian(R) 09 system (copyright 2009, Gaussian, Inc.),
 the Gaussian(R) 03 system (copyright 2003, Gaussian, Inc.),
 the Gaussian(R) 98 system (copyright 1998, Gaussian, Inc.),
 the Gaussian(R) 94 system (copyright 1995, Gaussian, Inc.),
 the Gaussian 92(TM) system (copyright 1992, Gaussian, Inc.),
 the Gaussian 90(TM) system (copyright 1990, Gaussian, Inc.),
 the Gaussian 88(TM) system (copyright 1988, Gaussian, Inc.),
 the Gaussian 86(TM) system (copyright 1986, Carnegie Mellon
 University), and the Gaussian 82(TM) system (copyright 1983,
 Carnegie Mellon University). Gaussian is a federally registered
 trademark of Gaussian, Inc.
  
 This software contains proprietary and confidential information,
 including trade secrets, belonging to Gaussian, Inc.
  
 This software is provided under written license and may be
 used, copied, transmitted, or stored only in accord with that
 written license.
  
 The following legend is applicable only to US Government
 contracts under FAR:
  
                    RESTRICTED RIGHTS LEGEND
  
 Use, reproduction and disclosure by the US Government is
 subject to restrictions as set forth in subparagraphs (a)
 and (c) of the Commercial Computer Software - Restricted
 Rights clause in FAR 52.227-19.
  
 Gaussian, Inc.
 340 Quinnipiac St., Bldg. 40, Wallingford CT 06492
  
  
 ---------------------------------------------------------------
 Warning -- This program may not be used in any manner that
 competes with the business of Gaussian, Inc. or will provide
 assistance to any competitor of Gaussian, Inc.  The licensee
 of this program is prohibited from giving any competitor of
 Gaussian, Inc. access to this program.  By using this program,
 the user acknowledges that Gaussian, Inc. is engaged in the
 business of creating and licensing software in the field of
 computational chemistry and represents and warrants to the
 licensee that it is not a competitor of Gaussian, Inc. and that
 it will not use this program in any manner prohibited above.
 ---------------------------------------------------------------
  

 Cite this work as:
 Gaussian 16, Revision A.03,
 M. J. Frisch, G. W. Trucks, H. B. Schlegel, G. E. Scuseria, 
 M. A. Robb, J. R. Cheeseman, G. Scalmani, V. Barone, 
 G. A. Petersson, H. Nakatsuji, X. Li, M. Caricato, A. V. Marenich, 
 J. Bloino, B. G. Janesko, R. Gomperts, B. Mennucci, H. P. Hratchian, 
 J. V. Ortiz, A. F. Izmaylov, J. L. Sonnenberg, D. Williams-Young, 
 F. Ding, F. Lipparini, F. Egidi, J. Goings, B. Peng, A. Petrone, 
 T. Henderson, D. Ranasinghe, V. G. Zakrzewski, J. Gao, N. Rega, 
 G. Zheng, W. Liang, M. Hada, M. Ehara, K. Toyota, R. Fukuda, 
 J. Hasegawa, M. Ishida, T. Nakajima, Y. Honda, O. Kitao, H. Nakai, 
 T. Vreven, K. Throssell, J. A. Montgomery, Jr., J. E. Peralta, 
 F. Ogliaro, M. J. Bearpark, J. J. Heyd, E. N. Brothers, K. N. Kudin, 
 V. N. Staroverov, T. A. Keith, R. Kobayashi, J. Normand, 
 K. Raghavachari, A. P. Rendell, J. C. Burant, S. S. Iyengar, 
 J. Tomasi, M. Cossi, J. M. Millam, M. Klene, C. Adamo, R. Cammi, 
 J. W. Ochterski, R. L. Martin, K. Morokuma, O. Farkas, 
 J. B. Foresman, and D. J. Fox, Gaussian, Inc., Wallingford CT, 2016.
 
 ******************************************
 Gaussian 16:  ES64L-G16RevA.03 25-Dec-2016
                16-Jan-2026 
 ******************************************
 %nprocshared=40
 Will use up to   40 processors via shared memory.
 %mem=128GB
 %chk=04BDP-NH2_2_water_m062x_def2SVP_dmso.chk
 ---------------------------------------------------------------------
 # td=(nstates=5,root=1) scrf=(smd,solvent=ethanol) def2svp m062x freq
 ---------------------------------------------------------------------
 1/10=4,30=1,38=1/1,3;
 2/12=2,17=6,18=5,40=1/2;
 3/5=43,7=101,11=9,25=1,30=1,70=32201,71=2,72=4,74=-55,140=1/1,2,3,8;
 4//1;
 5/5=2,38=5,53=4,98=1/2;
 8/6=1,10=1,107=1,108=5/1;
 9/8=1,15=3,41=5,42=1,70=2/14;
 10/5=2004,20=4,28=1/2;
 11/6=1,8=1,12=-1,16=1,42=3/1,2,10;
 10/6=3,21=1,28=1/2,14;
 6/7=2,8=2,9=2,10=2/1;
 7/8=1,10=1,12=6,13=8,14=1,25=1,44=2/1,2,3,16;
 1/10=4,30=1/3;
 99//99;
 --------------------------
 Step4 ES Opt m062x/def2SVP
 --------------------------
 Symbolic Z-matrix:
 Charge =  0 Multiplicity = 1
 C                    -1.08866   1.24132  -0.12357 
 C                    -1.0813   -1.23486  -0.14207 
 C                    -0.38668   0.00628  -0.25772 
 C                    -0.65246   2.59541  -0.18494 
 C                    -1.80775   3.38764   0.02675 
 C                    -2.90097   2.54448   0.20833 
 H                    -1.84184   4.47745   0.04585 
 C                    -2.88573  -2.55375   0.17043 
 C                    -0.63712  -2.58526  -0.22426 
 C                    -1.78762  -3.38749  -0.02441 
 H                    -1.81523  -4.47765  -0.02197 
 N                    -2.46424   1.24213   0.11707 
 N                    -2.45677  -1.24755   0.09905 
 B                    -3.34665  -0.00631   0.24303 
 F                    -4.01281  -0.01714   1.49804 
 F                    -4.356    -0.00217  -0.75853 
 C                     1.07517   0.01251  -0.5231 
 C                     1.57261   0.02326  -1.8584 
 C                     2.01366   0.0071    0.54724 
 C                     2.92081   0.02802  -2.1181 
 H                     0.86095   0.02773  -2.68588 
 C                     3.36941   0.01163   0.31933 
 H                     1.6403   -0.00105   1.57289 
 C                     3.85728   0.02234  -1.03075 
 H                     3.30266   0.03654  -3.14097 
 H                     4.07751   0.00574   1.15344 
 N                     5.16363   0.02753  -1.2785 
 H                     5.87108   0.02839  -0.52773 
 H                     5.49719   0.03552  -2.24117 
 O                     7.19304   0.05091   0.75713 
 H                     7.75478   0.84558   0.72821 
 H                     7.81977  -0.6924    0.708 
 O                     5.4146   -0.04432   2.98336 
 H                     6.10867   0.00262   2.29835 
 H                     5.26253  -0.99775   3.07214 
 C                     0.72816   3.13906  -0.41773 
 H                     1.45094   2.82267   0.35342 
 H                     1.152     2.83635  -1.39026 
 H                     0.70511   4.24032  -0.4052 
 C                    -4.32874   2.91039   0.46143 
 H                    -4.99905   2.51252  -0.3191 
 H                    -4.69278   2.50779   1.42166 
 H                    -4.44056   4.00423   0.48378 
 C                     0.7464   -3.11743  -0.46626 
 H                     1.16689  -2.79932  -1.43534 
 H                     1.46851  -2.80705   0.30794 
 H                     0.72991  -4.21888  -0.46842 
 C                    -4.31118  -2.93237   0.41797 
 H                    -4.67826  -2.54517   1.38334 
 H                    -4.98391  -2.52871  -0.3575 
 H                    -4.4157   -4.02714   0.4256 
 

 GradGradGradGradGradGradGradGradGradGradGradGradGradGradGradGradGradGrad
 Berny optimization.
 Initialization pass.
 Trust Radius=3.00D-01 FncErr=1.00D-07 GrdErr=1.00D-07 EigMax=2.50D+02 EigMin=1.00D-04
 Number of steps in this run=      2 maximum allowed number of steps=      2.
 GradGradGradGradGradGradGradGradGradGradGradGradGradGradGradGradGradGrad

 Stoichiometry    C19H24BF2N3O2
 Framework group  C1[X(C19H24BF2N3O2)]
 Deg. of freedom   147
 Full point group                 C1      NOp   1
 Largest Abelian subgroup         C1      NOp   1
 Largest concise Abelian subgroup C1      NOp   1
                         Standard orientation:                         
 ---------------------------------------------------------------------
 Center     Atomic      Atomic             Coordinates (Angstroms)
 Number     Number       Type             X           Y           Z
 ---------------------------------------------------------------------
      1          6           0       -1.088662    1.241323   -0.123571
      2          6           0       -1.081295   -1.234863   -0.142066
      3          6           0       -0.386680    0.006283   -0.257716
      4          6           0       -0.652462    2.595405   -0.184943
      5          6           0       -1.807750    3.387639    0.026745
      6          6           0       -2.900967    2.544483    0.208332
      7          1           0       -1.841842    4.477447    0.045846
      8          6           0       -2.885734   -2.553753    0.170432
      9          6           0       -0.637118   -2.585255   -0.224264
     10          6           0       -1.787616   -3.387489   -0.024409
     11          1           0       -1.815228   -4.477650   -0.021972
     12          7           0       -2.464241    1.242130    0.117067
     13          7           0       -2.456771   -1.247551    0.099050
     14          5           0       -3.346653   -0.006308    0.243031
     15          9           0       -4.012811   -0.017143    1.498041
     16          9           0       -4.356003   -0.002167   -0.758530
     17          6           0        1.075172    0.012508   -0.523102
     18          6           0        1.572614    0.023260   -1.858397
     19          6           0        2.013659    0.007096    0.547236
     20          6           0        2.920809    0.028017   -2.118099
     21          1           0        0.860946    0.027730   -2.685875
     22          6           0        3.369409    0.011625    0.319332
     23          1           0        1.640299   -0.001052    1.572894
     24          6           0        3.857282    0.022342   -1.030754
     25          1           0        3.302655    0.036537   -3.140965
     26          1           0        4.077513    0.005744    1.153443
     27          7           0        5.163628    0.027533   -1.278502
     28          1           0        5.871078    0.028393   -0.527732
     29          1           0        5.497190    0.035521   -2.241174
     30          8           0        7.193035    0.050905    0.757126
     31          1           0        7.754781    0.845580    0.728206
     32          1           0        7.819772   -0.692397    0.707995
     33          8           0        5.414599   -0.044323    2.983363
     34          1           0        6.108674    0.002615    2.298351
     35          1           0        5.262534   -0.997747    3.072138
     36          6           0        0.728155    3.139058   -0.417729
     37          1           0        1.450943    2.822670    0.353416
     38          1           0        1.152002    2.836345   -1.390263
     39          1           0        0.705108    4.240319   -0.405200
     40          6           0       -4.328743    2.910386    0.461429
     41          1           0       -4.999048    2.512518   -0.319102
     42          1           0       -4.692779    2.507786    1.421655
     43          1           0       -4.440556    4.004227    0.483784
     44          6           0        0.746399   -3.117426   -0.466260
     45          1           0        1.166887   -2.799316   -1.435342
     46          1           0        1.468513   -2.807051    0.307937
     47          1           0        0.729913   -4.218880   -0.468418
     48          6           0       -4.311183   -2.932373    0.417966
     49          1           0       -4.678260   -2.545174    1.383343
     50          1           0       -4.983907   -2.528710   -0.357502
     51          1           0       -4.415702   -4.027141    0.425596
 ---------------------------------------------------------------------
 Rotational constants (GHZ):           0.2989871           0.1062440           0.0897822
 Standard basis: def2SVP (5D, 7F)
 There are   525 symmetry adapted cartesian basis functions of A   symmetry.
 There are   498 symmetry adapted basis functions of A   symmetry.
   498 basis functions,   843 primitive gaussians,   525 cartesian basis functions
    99 alpha electrons       99 beta electrons
       nuclear repulsion energy      2515.2051065734 Hartrees.
 NAtoms=   51 NActive=   51 NUniq=   51 SFac= 1.00D+00 NAtFMM=   60 NAOKFM=F Big=F
 Integral buffers will be    131072 words long.
 Regular integral format.
 Two-electron integral symmetry is turned on.
 Force inversion solution in PCM.
 ------------------------------------------------------------------------------
 Polarizable Continuum Model (PCM)
 =================================
 Model                : PCM.
 Atomic radii         : SMD-Coulomb.
 Polarization charges : Total charges.
 Charge compensation  : None.
 Solution method      : Matrix inversion.
 Cavity type          : VdW (van der Waals Surface) (Alpha=1.000).
 Cavity algorithm     : GePol (No added spheres)
                        Default sphere list used, NSphG=   51.
                        Lebedev-Laikov grids with approx.  5.0 points / Ang**2.
                        Smoothing algorithm: York/Karplus (Gamma=1.0000).
                        Polarization charges: spherical gaussians, with
                                              point-specific exponents (IZeta= 3).
                        Self-potential: point-specific (ISelfS= 7).
                        Self-field    : sphere-specific E.n sum rule (ISelfD= 2).
 1st derivatives      : Analytical E(r).r(x)/FMM algorithm (CHGder, D1EAlg=3).
                        Cavity 1st derivative terms included.
 2nd derivatives      : Analytical E(r).r(xy)/FMM algorithm (CHGder, D2EAlg=3).
                        Cavity 2nd derivative terms included.
 Solvent              : Ethanol, Eps=  24.852000 Eps(inf)=   1.852593
 ------------------------------------------------------------------------------
 ------------------------------------------------------------------------------
 Atomic radii for non-electrostatic terms: SMD-CDS.
 ------------------------------------------------------------------------------
 Nuclear repulsion after PCM non-electrostatic terms =     2515.2040298294 Hartrees.
 One-electron integrals computed using PRISM.
   1 Symmetry operations used in ECPInt.
 ECPInt:  NShTT=   27495 NPrTT=   99213 LenC2=   23164 LenP2D=   56139.
 LDataN:  DoStor=T MaxTD1= 4 Len=   56
 NBasis=   498 RedAO= T EigKep=  2.63D-04  NBF=   498
 NBsUse=   498 1.00D-06 EigRej= -1.00D+00 NBFU=   498
 ExpMin= 8.36D-02 ExpMax= 2.89D+03 ExpMxC= 4.35D+02 IAcc=3 IRadAn=         5 AccDes= 0.00D+00
 Harris functional with IExCor= 1009 and IRadAn=       5 diagonalized for initial guess.
 HarFok:  IExCor= 1009 AccDes= 0.00D+00 IRadAn=         5 IDoV= 1 UseB2=F ITyADJ=14
 ICtDFT=  3500011 ScaDFX=  1.000000  1.000000  1.000000  1.000000
 FoFCou: FMM=F IPFlag=           0 FMFlag=      100000 FMFlg1=           0
         NFxFlg=           0 DoJE=T BraDBF=F KetDBF=T FulRan=T
         wScrn=  0.000000 ICntrl=       500 IOpCl=  0 I1Cent=   200000004 NGrid=           0
         NMat0=    1 NMatS0=      1 NMatT0=    0 NMatD0=    1 NMtDS0=    0 NMtDT0=    0
 Petite list used in FoFCou.
 Requested convergence on RMS density matrix=1.00D-08 within 128 cycles.
 Requested convergence on MAX density matrix=1.00D-06.
 Requested convergence on             energy=1.00D-06.
 No special actions if energy rises.
 Inv3:  Mode=1 IEnd=    41359107.
 Iteration    1 A*A^-1 deviation from unit magnitude is 1.38D-14 for   1300.
 Iteration    1 A*A^-1 deviation from orthogonality  is 6.51D-15 for   3510     86.
 Iteration    1 A^-1*A deviation from unit magnitude is 1.38D-14 for   1300.
 Iteration    1 A^-1*A deviation from orthogonality  is 4.32D-15 for   2932    153.
 Error on total polarization charges =  0.04805
 SCF Done:  E(RM062X) =  -1276.50816760     A.U. after   12 cycles
            NFock= 12  Conv=0.99D-08     -V/T= 2.0103
 SMD-CDS (non-electrostatic) energy       (kcal/mol) =      -0.68
 (included in total energy above)
 DoSCS=F DFT=T ScalE2(SS,OS)=  1.000000  1.000000
 ExpMin= 8.36D-02 ExpMax= 2.89D+03 ExpMxC= 4.35D+02 IAcc=3 IRadAn=         5 AccDes= 0.00D+00
 HarFok:  IExCor=  205 AccDes= 0.00D+00 IRadAn=         5 IDoV=-2 UseB2=F ITyADJ=14
 ICtDFT= 12500011 ScaDFX=  1.000000  1.000000  1.000000  1.000000
 GSVD:  LWork=        -945 too small for GESVD, short by        4050 words or        4050 for optimal perf.
 Range of M.O.s used for correlation:    28   498
 NBasis=   498 NAE=    99 NBE=    99 NFC=    27 NFV=     0
 NROrb=    471 NOA=    72 NOB=    72 NVA=   399 NVB=   399

 **** Warning!!: The largest alpha MO coefficient is  0.11654368D+02

 NEqPCM:  Using equilibrium solvation (IEInf=0, Eps=  24.8520, EpsInf=   1.8526)
 Orbital symmetries:
       Occupied  (A) (A) (A) (A) (A) (A) (A) (A) (A) (A) (A) (A)
                 (A) (A) (A) (A) (A) (A) (A) (A) (A) (A) (A) (A)
                 (A) (A) (A) (A) (A) (A) (A) (A) (A) (A) (A) (A)
                 (A) (A) (A) (A) (A) (A) (A) (A) (A) (A) (A) (A)
                 (A) (A) (A) (A) (A) (A) (A) (A) (A) (A) (A) (A)
                 (A) (A) (A) (A) (A) (A) (A) (A) (A) (A) (A) (A)
                 (A) (A) (A) (A) (A) (A) (A) (A) (A) (A) (A) (A)
                 (A) (A) (A) (A) (A) (A) (A) (A) (A) (A) (A) (A)
                 (A) (A) (A)
       Virtual   (A) (A) (A) (A) (A) (A) (A) (A) (A) (A) (A) (A)
                 (A) (A) (A) (A) (A) (A) (A) (A) (A) (A) (A) (A)
                 (A) (A) (A) (A) (A) (A) (A) (A) (A) (A) (A) (A)
                 (A) (A) (A) (A) (A) (A) (A) (A) (A) (A) (A) (A)
                 (A) (A) (A) (A) (A) (A) (A) (A) (A) (A) (A) (A)
                 (A) (A) (A) (A) (A) (A) (A) (A) (A) (A) (A) (A)
                 (A) (A) (A) (A) (A) (A) (A) (A) (A) (A) (A) (A)
                 (A) (A) (A) (A) (A) (A) (A) (A) (A) (A) (A) (A)
                 (A) (A) (A) (A) (A) (A) (A) (A) (A) (A) (A) (A)
                 (A) (A) (A) (A) (A) (A) (A) (A) (A) (A) (A) (A)
                 (A) (A) (A) (A) (A) (A) (A) (A) (A) (A) (A) (A)
                 (A) (A) (A) (A) (A) (A) (A) (A) (A) (A) (A) (A)
                 (A) (A) (A) (A) (A) (A) (A) (A) (A) (A) (A) (A)
                 (A) (A) (A) (A) (A) (A) (A) (A) (A) (A) (A) (A)
                 (A) (A) (A) (A) (A) (A) (A) (A) (A) (A) (A) (A)
                 (A) (A) (A) (A) (A) (A) (A) (A) (A) (A) (A) (A)
                 (A) (A) (A) (A) (A) (A) (A) (A) (A) (A) (A) (A)
                 (A) (A) (A) (A) (A) (A) (A) (A) (A) (A) (A) (A)
                 (A) (A) (A) (A) (A) (A) (A) (A) (A) (A) (A) (A)
                 (A) (A) (A) (A) (A) (A) (A) (A) (A) (A) (A) (A)
                 (A) (A) (A) (A) (A) (A) (A) (A) (A) (A) (A) (A)
                 (A) (A) (A) (A) (A) (A) (A) (A) (A) (A) (A) (A)
                 (A) (A) (A) (A) (A) (A) (A) (A) (A) (A) (A) (A)
                 (A) (A) (A) (A) (A) (A) (A) (A) (A) (A) (A) (A)
                 (A) (A) (A) (A) (A) (A) (A) (A) (A) (A) (A) (A)
                 (A) (A) (A) (A) (A) (A) (A) (A) (A) (A) (A) (A)
                 (A) (A) (A) (A) (A) (A) (A) (A) (A) (A) (A) (A)
                 (A) (A) (A) (A) (A) (A) (A) (A) (A) (A) (A) (A)
                 (A) (A) (A) (A) (A) (A) (A) (A) (A) (A) (A) (A)
                 (A) (A) (A) (A) (A) (A) (A) (A) (A) (A) (A) (A)
                 (A) (A) (A) (A) (A) (A) (A) (A) (A) (A) (A) (A)
                 (A) (A) (A) (A) (A) (A) (A) (A) (A) (A) (A) (A)
                 (A) (A) (A) (A) (A) (A) (A) (A) (A) (A) (A) (A)
                 (A) (A) (A)
    20 initial guesses have been made.
 Convergence on wavefunction:    0.000001000000000
 Iteration     1 Dimension    20 NMult     0 NNew     20
 CISAX will form    20 AO SS matrices at one time.
 Iteration     2 Dimension    30 NMult    20 NNew     10
 Iteration     3 Dimension    40 NMult    30 NNew     10
 Iteration     4 Dimension    50 NMult    40 NNew     10
 Iteration     5 Dimension    60 NMult    50 NNew     10
 Iteration     6 Dimension    70 NMult    60 NNew     10
 Iteration     7 Dimension    80 NMult    70 NNew     10
 Iteration     8 Dimension    90 NMult    80 NNew     10
 Iteration     9 Dimension    98 NMult    90 NNew      8
 Iteration    10 Dimension   102 NMult    98 NNew      4
 Iteration    11 Dimension   106 NMult   102 NNew      4
 Iteration    12 Dimension   108 NMult   106 NNew      2
 Iteration    13 Dimension   110 NMult   108 NNew      2
 ***********************************************************************
 Excited states from <AA,BB:AA,BB> singles matrix:
 ***********************************************************************
 
 Ground to excited state transition densities written to RWF  633
 Ground to excited state transition electric dipole moments (Au):
       state          X           Y           Z        Dip. S.      Osc.
         1         0.0018     -0.0492     -0.0009      0.0024      0.0001
         2        -0.0123      3.7697      0.0287     14.2113      0.8859
         3         0.0044      0.6345      0.0041      0.4027      0.0355
         4         0.9136      0.0002     -0.1556      0.8590      0.0823
         5         0.0007     -0.1453      0.0009      0.0211      0.0023
 Ground to excited state transition velocity dipole moments (Au):
       state          X           Y           Z        Dip. S.      Osc.
         1        -0.0002      0.0043      0.0001      0.0000      0.0001
         2         0.0012     -0.3545     -0.0027      0.1257      0.8960
         3        -0.0006     -0.0876     -0.0006      0.0077      0.0387
         4        -0.1336     -0.0000      0.0227      0.0184      0.0852
         5        -0.0001      0.0275     -0.0001      0.0008      0.0031
 Ground to excited state transition magnetic dipole moments (Au):
       state          X           Y           Z
         1         0.1403      0.0005     -0.0241
         2        -0.2203     -0.0007     -0.0172
         3         0.2577     -0.0125      1.7989
         4        -0.0018      0.0766     -0.0088
         5         0.0201     -0.0001      0.0407
 Ground to excited state transition velocity quadrupole moments (Au):
       state          XX          YY          ZZ          XY          XZ          YZ
         1        -0.0004      0.0003     -0.0001     -0.0153      0.0001      0.0065
         2        -0.0078      0.0006     -0.0002      1.3195      0.0099     -0.0191
         3         0.0076     -0.0088      0.0020     -0.4439     -0.0041      0.1312
         4         0.8244     -0.4555     -0.0018      0.0050     -0.0622     -0.0044
         5         0.0002      0.0000      0.0010     -0.0042     -0.0021     -0.0170
 <0|del|b> * <b|rxdel|0> + <0|del|b> * <b|delr+rdel|0>
 Rotatory Strengths (R) in cgs (10**-40 erg-esu-cm/Gauss)
       state          XX          YY          ZZ    R(velocity)    E-M Angle
         1        -0.0060     -0.1003     -0.0786     -0.0616       90.00
         2         0.8803     12.5778    -13.2849      0.0577       90.00
         3        -0.0814     -4.0137      3.6913     -0.1346       90.00
         4        -0.2251      1.2756     -0.8741      0.0588       90.00
         5         0.1068     -0.0154     -0.1465     -0.0184       90.00
 1/2[<0|r|b>*<b|rxdel|0> + (<0|rxdel|b>*<b|r|0>)*]
 Rotatory Strengths (R) in cgs (10**-40 erg-esu-cm/Gauss)
       state          XX          YY          ZZ     R(length)
         1        -0.1739      0.0164     -0.0147     -0.0574
         2        -1.9112      1.7363      0.3479      0.0577
         3        -0.8082      5.6196     -5.1731     -0.1206
         4         1.1551     -0.0115     -0.9709      0.0576
         5        -0.0100     -0.0144     -0.0258     -0.0167
  1/2[<0|del|b>*<b|r|0> + (<0|r|b>*<b|del|0>)*] (Au)
       state          X           Y           Z        Dip. S.   Osc.(frdel)
         1        -0.0000     -0.0002     -0.0000      0.0002      0.0001
         2        -0.0000     -1.3364     -0.0001      1.3364      0.8910
         3        -0.0000     -0.0556     -0.0000      0.0556      0.0371
         4        -0.1221     -0.0000     -0.0035      0.1256      0.0837
         5        -0.0000     -0.0040     -0.0000      0.0040      0.0027

 Excitation energies and oscillator strengths:
 
 Excited State   1:      Singlet-A      2.3095 eV  536.84 nm  f=0.0001  <S**2>=0.000
      93 ->100        -0.10506
      99 ->100         0.69586
 This state for optimization and/or second-order correction.
 Total Energy, E(TD-HF/TD-DFT) =  -1276.42329398    
 Copying the excited state density for this state as the 1-particle RhoCI density.
 
 Excited State   2:      Singlet-A      2.5445 eV  487.25 nm  f=0.8859  <S**2>=0.000
      98 ->100         0.70199
 
 Excited State   3:      Singlet-A      3.5983 eV  344.57 nm  f=0.0355  <S**2>=0.000
      95 ->100        -0.10744
      97 ->100         0.69377
 
 Excited State   4:      Singlet-A      3.9120 eV  316.93 nm  f=0.0823  <S**2>=0.000
      96 ->100         0.70378
 
 Excited State   5:      Singlet-A      4.4532 eV  278.42 nm  f=0.0023  <S**2>=0.000
      95 ->100         0.69638
      97 ->100         0.10991
 SavETr:  write IOETrn=   770 NScale= 10 NData=  16 NLR=1 NState=    5 LETran=     100.
          IDoAtm=11111111111111111111111111111111111111111111111111
          IDoAtm=1
 NEqPCM:  Using equilibrium solvation (IEInf=0, Eps=  24.8520, EpsInf=   1.8526)
          Differentiating once with respect to electric field.
                with respect to dipole field.
          Differentiating once with respect to nuclear coordinates.
          There are     1 degrees of freedom in the 1st order CPHF.  IDoFFX=0 NUNeed=     1.
 LinEq1:  Iter=  0 NonCon=     1 RMS=3.52D-03 Max=1.43D-01 NDo=     1
 AX will form     1 AO Fock derivatives at one time.
 LinEq1:  Iter=  1 NonCon=     1 RMS=1.20D-03 Max=1.22D-01 NDo=     1
 LinEq1:  Iter=  2 NonCon=     1 RMS=7.85D-04 Max=8.99D-02 NDo=     1
 LinEq1:  Iter=  3 NonCon=     1 RMS=3.16D-04 Max=2.82D-02 NDo=     1
 LinEq1:  Iter=  4 NonCon=     1 RMS=1.58D-04 Max=1.07D-02 NDo=     1
 LinEq1:  Iter=  5 NonCon=     1 RMS=6.61D-05 Max=3.54D-03 NDo=     1
 LinEq1:  Iter=  6 NonCon=     1 RMS=2.68D-05 Max=1.79D-03 NDo=     1
 LinEq1:  Iter=  7 NonCon=     1 RMS=1.20D-05 Max=4.68D-04 NDo=     1
 LinEq1:  Iter=  8 NonCon=     1 RMS=4.56D-06 Max=3.20D-04 NDo=     1
 LinEq1:  Iter=  9 NonCon=     1 RMS=2.02D-06 Max=1.02D-04 NDo=     1
 LinEq1:  Iter= 10 NonCon=     1 RMS=1.02D-06 Max=6.10D-05 NDo=     1
 LinEq1:  Iter= 11 NonCon=     1 RMS=4.72D-07 Max=1.78D-05 NDo=     1
 LinEq1:  Iter= 12 NonCon=     1 RMS=2.13D-07 Max=1.57D-05 NDo=     1
 LinEq1:  Iter= 13 NonCon=     1 RMS=9.19D-08 Max=4.70D-06 NDo=     1
 LinEq1:  Iter= 14 NonCon=     1 RMS=5.02D-08 Max=3.52D-06 NDo=     1
 LinEq1:  Iter= 15 NonCon=     1 RMS=1.97D-08 Max=1.78D-06 NDo=     1
 LinEq1:  Iter= 16 NonCon=     1 RMS=7.96D-09 Max=6.48D-07 NDo=     1
 LinEq1:  Iter= 17 NonCon=     1 RMS=3.52D-09 Max=2.61D-07 NDo=     1
 LinEq1:  Iter= 18 NonCon=     1 RMS=1.84D-09 Max=1.15D-07 NDo=     1
 LinEq1:  Iter= 19 NonCon=     1 RMS=6.48D-10 Max=3.52D-08 NDo=     1
 LinEq1:  Iter= 20 NonCon=     1 RMS=2.71D-10 Max=1.21D-08 NDo=     1
 LinEq1:  Iter= 21 NonCon=     1 RMS=1.20D-10 Max=3.85D-09 NDo=     1
 LinEq1:  Iter= 22 NonCon=     1 RMS=3.28D-11 Max=1.27D-09 NDo=     1
 LinEq1:  Iter= 23 NonCon=     0 RMS=1.53D-11 Max=7.27D-10 NDo=     1
 Linear equations converged to 1.000D-10 1.000D-09 after    23 iterations.
          There are     1 degrees of freedom in the 1st order CPHF.  IDoFFX=0 NUNeed=     1.
 End of Minotr F.D. properties file   721 does not exist.
 End of Minotr F.D. properties file   722 does not exist.
 End of Minotr F.D. properties file   788 does not exist.
   1 Symmetry operations used in ECPInt.
 ECPInt:  NShTT=   27495 NPrTT=   99213 LenC2=   23164 LenP2D=   56139.
 LDataN:  DoStor=T MaxTD1= 5 Len=  102
 Number of processors reduced to  27 by ecpmxn.
 Symmetrizing basis deriv contribution to polar:
 IMax=3 JMax=2 DiffMx= 0.00D+00
 G2DrvN: will do    52 centers at a time, making    1 passes.
 Calling FoFCou, ICntrl=  3107 FMM=F I1Cent=   0 AccDes= 0.00D+00.
 NEqPCM:  Using equilibrium solvation (IEInf=0, Eps=  24.8520, EpsInf=   1.8526)
 G2PCM: DoFxE=T DoFxN=T DoGrad=T DoDP/DQ/DG/TGxP=FFFF NFrqRd=   0 IEInf=0 SqF1=F DoCFld=F IF1Alg=4.
 G2DrvN: will do    52 centers at a time, making    1 passes.
 Calling FoFCou, ICntrl=  3107 FMM=F I1Cent=   0 AccDes= 0.00D+00.
 NEqPCM:  Using equilibrium solvation (IEInf=0, Eps=  24.8520, EpsInf=   1.8526)
 G2PCM: DoFxE=T DoFxN=F DoGrad=F DoDP/DQ/DG/TGxP=FFFF NFrqRd=   0 IEInf=0 SqF1=F DoCFld=F IF1Alg=4.
 G2DrvN: will do    52 centers at a time, making    1 passes.
 Calling FoFCou, ICntrl=  3107 FMM=F I1Cent=   0 AccDes= 0.00D+00.
 NEqPCM:  Using equilibrium solvation (IEInf=0, Eps=  24.8520, EpsInf=   1.8526)
 G2PCM: DoFxE=T DoFxN=F DoGrad=F DoDP/DQ/DG/TGxP=FFFF NFrqRd=   0 IEInf=0 SqF1=T DoCFld=F IF1Alg=4.
 End of G2Drv F.D. properties file   721 does not exist.
 End of G2Drv F.D. properties file   722 does not exist.
 End of G2Drv F.D. properties file   788 does not exist.
          IDoAtm=11111111111111111111111111111111111111111111111111
          IDoAtm=1
 NEqPCM:  Using equilibrium solvation (IEInf=0, Eps=  24.8520, EpsInf=   1.8526)
          Differentiating once with respect to electric field.
                with respect to dipole field.
          Differentiating once with respect to nuclear coordinates.
 CalDSu exits because no D1Ps are significant.
          There are   156 degrees of freedom in the 1st order CPHF.  IDoFFX=6 NUNeed=   156.
    153 vectors produced by pass  0 Test12= 3.95D-14 1.00D-09 XBig12= 3.76D+02 1.69D+01.
 AX will form   153 AO Fock derivatives at one time.
    153 vectors produced by pass  1 Test12= 3.95D-14 1.00D-09 XBig12= 2.45D+01 6.24D-01.
    153 vectors produced by pass  2 Test12= 3.95D-14 1.00D-09 XBig12= 3.23D-01 9.47D-02.
    153 vectors produced by pass  3 Test12= 3.95D-14 1.00D-09 XBig12= 2.26D-03 6.63D-03.
    153 vectors produced by pass  4 Test12= 3.95D-14 1.00D-09 XBig12= 1.47D-05 4.33D-04.
    153 vectors produced by pass  5 Test12= 3.95D-14 1.00D-09 XBig12= 5.15D-08 2.23D-05.
     91 vectors produced by pass  6 Test12= 3.95D-14 1.00D-09 XBig12= 1.39D-10 1.11D-06.
      8 vectors produced by pass  7 Test12= 3.95D-14 1.00D-09 XBig12= 3.46D-13 6.72D-08.
      3 vectors produced by pass  8 Test12= 3.95D-14 1.00D-09 XBig12= 9.50D-16 3.70D-09.
 InvSVY:  IOpt=1 It=  1 EMax= 1.07D-14
 Solved reduced A of dimension  1020 with   156 vectors.
 Isotropic polarizability for W=    0.000000      428.92 Bohr**3.
 End of Minotr F.D. properties file   721 does not exist.
 End of Minotr F.D. properties file   722 does not exist.
 End of Minotr F.D. properties file   788 does not exist.
 This link is doing   156 degrees of freedom
 Form MO integral derivatives with frozen-active canonical formalism.
 CISSec: MDV=   17179846599
 Doing TD-HF/TD-DFT second derivatives, IDoFFX=6 IOneXC=4 IRadAn=         1.
 Frozen orbitals handled with amplitudes over full window.
 CISAX will form   156 AO SS matrices at one time.
    153 vectors produced by pass  0 Test12= 5.75D-14 1.00D-09 XBig12= 7.78D+01 6.50D+00.
 AX will form   153 AO Fock derivatives at one time.
    153 vectors produced by pass  1 Test12= 5.75D-14 1.00D-09 XBig12= 2.40D+02 1.34D+01.
    153 vectors produced by pass  2 Test12= 5.75D-14 1.00D-09 XBig12= 2.26D+00 4.75D-01.
    153 vectors produced by pass  3 Test12= 5.75D-14 1.00D-09 XBig12= 6.12D-03 1.72D-02.
    150 vectors produced by pass  4 Test12= 5.75D-14 1.00D-09 XBig12= 4.08D-05 7.55D-04.
    128 vectors produced by pass  5 Test12= 5.75D-14 1.00D-09 XBig12= 2.38D-07 5.32D-05.
     67 vectors produced by pass  6 Test12= 5.75D-14 1.00D-09 XBig12= 1.16D-09 4.07D-06.
     17 vectors produced by pass  7 Test12= 5.75D-14 1.00D-09 XBig12= 5.53D-12 2.09D-07.
      4 vectors produced by pass  8 Test12= 5.75D-14 1.00D-09 XBig12= 2.99D-14 1.64D-08.
 InvSVY:  IOpt=1 It=  1 EMax= 5.33D-15
 Solved reduced A of dimension   978 with   156 vectors.
 Tx.T = -7.52D-05 for pert.     1
 Tx.T = -2.26D-05 for pert.    12
 Tx.T =  1.07D-05 for pert.    54
 Tx.T = -5.97D-06 for pert.    55
 Tx.T = -5.69D-06 for pert.     3
 Tx.T =  5.27D-06 for pert.     9
 Tx.T =  3.44D-06 for pert.     6
 Tx.T =  3.23D-06 for pert.    10
 Tx.T =  1.67D-06 for pert.    58
 Tx.T =  1.33D-06 for pert.    57
 SavDET:  read IOETrn=   770 NScale= 10 NData=  16 NLR=1 NState=    5 NDeriv=    0 LETran=     100.
 SavDET: write IOETrn=   770 NScale= 10 NData=  16 NLR=1 NState=    5 NDeriv=  156 LETran=    2596.
 TDDxLx will form   156 C1x/S1x matrices at one time.
 Interchange theorem applied.
 D1PCM: PCM CHGder 1st derivatives, ID1Alg=3 FixD1E=F DoIter=F DoCFld=F I1PDM=6.

 **********************************************************************

            Population analysis using the SCF density.

 **********************************************************************

 Orbital symmetries:
       Occupied  (A) (A) (A) (A) (A) (A) (A) (A) (A) (A) (A) (A)
                 (A) (A) (A) (A) (A) (A) (A) (A) (A) (A) (A) (A)
                 (A) (A) (A) (A) (A) (A) (A) (A) (A) (A) (A) (A)
                 (A) (A) (A) (A) (A) (A) (A) (A) (A) (A) (A) (A)
                 (A) (A) (A) (A) (A) (A) (A) (A) (A) (A) (A) (A)
                 (A) (A) (A) (A) (A) (A) (A) (A) (A) (A) (A) (A)
                 (A) (A) (A) (A) (A) (A) (A) (A) (A) (A) (A) (A)
                 (A) (A) (A) (A) (A) (A) (A) (A) (A) (A) (A) (A)
                 (A) (A) (A)
       Virtual   (A) (A) (A) (A) (A) (A) (A) (A) (A) (A) (A) (A)
                 (A) (A) (A) (A) (A) (A) (A) (A) (A) (A) (A) (A)
                 (A) (A) (A) (A) (A) (A) (A) (A) (A) (A) (A) (A)
                 (A) (A) (A) (A) (A) (A) (A) (A) (A) (A) (A) (A)
                 (A) (A) (A) (A) (A) (A) (A) (A) (A) (A) (A) (A)
                 (A) (A) (A) (A) (A) (A) (A) (A) (A) (A) (A) (A)
                 (A) (A) (A) (A) (A) (A) (A) (A) (A) (A) (A) (A)
                 (A) (A) (A) (A) (A) (A) (A) (A) (A) (A) (A) (A)
                 (A) (A) (A) (A) (A) (A) (A) (A) (A) (A) (A) (A)
                 (A) (A) (A) (A) (A) (A) (A) (A) (A) (A) (A) (A)
                 (A) (A) (A) (A) (A) (A) (A) (A) (A) (A) (A) (A)
                 (A) (A) (A) (A) (A) (A) (A) (A) (A) (A) (A) (A)
                 (A) (A) (A) (A) (A) (A) (A) (A) (A) (A) (A) (A)
                 (A) (A) (A) (A) (A) (A) (A) (A) (A) (A) (A) (A)
                 (A) (A) (A) (A) (A) (A) (A) (A) (A) (A) (A) (A)
                 (A) (A) (A) (A) (A) (A) (A) (A) (A) (A) (A) (A)
                 (A) (A) (A) (A) (A) (A) (A) (A) (A) (A) (A) (A)
                 (A) (A) (A) (A) (A) (A) (A) (A) (A) (A) (A) (A)
                 (A) (A) (A) (A) (A) (A) (A) (A) (A) (A) (A) (A)
                 (A) (A) (A) (A) (A) (A) (A) (A) (A) (A) (A) (A)
                 (A) (A) (A) (A) (A) (A) (A) (A) (A) (A) (A) (A)
                 (A) (A) (A) (A) (A) (A) (A) (A) (A) (A) (A) (A)
                 (A) (A) (A) (A) (A) (A) (A) (A) (A) (A) (A) (A)
                 (A) (A) (A) (A) (A) (A) (A) (A) (A) (A) (A) (A)
                 (A) (A) (A) (A) (A) (A) (A) (A) (A) (A) (A) (A)
                 (A) (A) (A) (A) (A) (A) (A) (A) (A) (A) (A) (A)
                 (A) (A) (A) (A) (A) (A) (A) (A) (A) (A) (A) (A)
                 (A) (A) (A) (A) (A) (A) (A) (A) (A) (A) (A) (A)
                 (A) (A) (A) (A) (A) (A) (A) (A) (A) (A) (A) (A)
                 (A) (A) (A) (A) (A) (A) (A) (A) (A) (A) (A) (A)
                 (A) (A) (A) (A) (A) (A) (A) (A) (A) (A) (A) (A)
                 (A) (A) (A) (A) (A) (A) (A) (A) (A) (A) (A) (A)
                 (A) (A) (A) (A) (A) (A) (A) (A) (A) (A) (A) (A)
                 (A) (A) (A)
 The electronic state is 1-A.
 Alpha  occ. eigenvalues --  -25.19364 -25.19329 -19.64756 -19.60768 -14.78263
 Alpha  occ. eigenvalues --  -14.78256 -14.75059 -10.61493 -10.60624 -10.60621
 Alpha  occ. eigenvalues --  -10.59890 -10.59213 -10.59205 -10.57653 -10.57646
 Alpha  occ. eigenvalues --  -10.55912 -10.55813 -10.55698 -10.55219 -10.55214
 Alpha  occ. eigenvalues --  -10.54934 -10.54900 -10.54601 -10.54593 -10.54492
 Alpha  occ. eigenvalues --  -10.54135  -7.13148  -1.27687  -1.24196  -1.12037
 Alpha  occ. eigenvalues --   -1.08398  -1.08385  -1.06510  -1.01502  -0.94157
 Alpha  occ. eigenvalues --   -0.89819  -0.88966  -0.88122  -0.84956  -0.83271
 Alpha  occ. eigenvalues --   -0.83104  -0.78671  -0.78329  -0.78137  -0.74903
 Alpha  occ. eigenvalues --   -0.70029  -0.68527  -0.68312  -0.66054  -0.63266
 Alpha  occ. eigenvalues --   -0.62644  -0.62034  -0.60657  -0.60076  -0.59410
 Alpha  occ. eigenvalues --   -0.58327  -0.57806  -0.57700  -0.56381  -0.54909
 Alpha  occ. eigenvalues --   -0.54045  -0.51769  -0.51497  -0.50976  -0.49978
 Alpha  occ. eigenvalues --   -0.49847  -0.49322  -0.48826  -0.48397  -0.47915
 Alpha  occ. eigenvalues --   -0.47821  -0.47622  -0.47548  -0.47142  -0.46027
 Alpha  occ. eigenvalues --   -0.45968  -0.45942  -0.45616  -0.45535  -0.45352
 Alpha  occ. eigenvalues --   -0.44957  -0.44199  -0.44003  -0.43606  -0.43396
 Alpha  occ. eigenvalues --   -0.42626  -0.41973  -0.41091  -0.40655  -0.39723
 Alpha  occ. eigenvalues --   -0.39334  -0.36940  -0.36645  -0.33528  -0.31245
 Alpha  occ. eigenvalues --   -0.30786  -0.29771  -0.25245  -0.23630
 Alpha virt. eigenvalues --   -0.07806   0.02780   0.04062   0.06669   0.08269
 Alpha virt. eigenvalues --    0.08341   0.10623   0.10873   0.12058   0.12411
 Alpha virt. eigenvalues --    0.13001   0.13101   0.13818   0.14084   0.14235
 Alpha virt. eigenvalues --    0.15228   0.15257   0.16275   0.16918   0.17290
 Alpha virt. eigenvalues --    0.17671   0.18509   0.19438   0.20311   0.20488
 Alpha virt. eigenvalues --    0.20572   0.20682   0.21077   0.21459   0.21609
 Alpha virt. eigenvalues --    0.22660   0.23139   0.24642   0.25387   0.25906
 Alpha virt. eigenvalues --    0.26320   0.26396   0.26927   0.27351   0.28468
 Alpha virt. eigenvalues --    0.28570   0.29006   0.30024   0.30258   0.31663
 Alpha virt. eigenvalues --    0.32663   0.33480   0.34367   0.35254   0.36704
 Alpha virt. eigenvalues --    0.37308   0.38530   0.39484   0.39715   0.40672
 Alpha virt. eigenvalues --    0.41794   0.42282   0.42325   0.43526   0.43552
 Alpha virt. eigenvalues --    0.44687   0.45481   0.45980   0.46706   0.47087
 Alpha virt. eigenvalues --    0.47770   0.47862   0.48015   0.48063   0.49849
 Alpha virt. eigenvalues --    0.49963   0.50581   0.51683   0.51740   0.53342
 Alpha virt. eigenvalues --    0.53591   0.54105   0.54754   0.55125   0.55259
 Alpha virt. eigenvalues --    0.56312   0.57614   0.57889   0.59570   0.60277
 Alpha virt. eigenvalues --    0.60621   0.61173   0.61692   0.62119   0.62465
 Alpha virt. eigenvalues --    0.62840   0.63242   0.63740   0.66091   0.66560
 Alpha virt. eigenvalues --    0.67221   0.68068   0.68715   0.69126   0.69308
 Alpha virt. eigenvalues --    0.69888   0.70185   0.70358   0.71253   0.71572
 Alpha virt. eigenvalues --    0.71974   0.72207   0.72430   0.72511   0.72821
 Alpha virt. eigenvalues --    0.73514   0.73803   0.74032   0.74514   0.74856
 Alpha virt. eigenvalues --    0.75577   0.75743   0.76541   0.76644   0.76909
 Alpha virt. eigenvalues --    0.77050   0.77540   0.78191   0.78788   0.79003
 Alpha virt. eigenvalues --    0.79192   0.79641   0.80582   0.80635   0.81892
 Alpha virt. eigenvalues --    0.82043   0.82322   0.83031   0.83828   0.84508
 Alpha virt. eigenvalues --    0.84870   0.85586   0.87180   0.88607   0.89691
 Alpha virt. eigenvalues --    0.89735   0.90422   0.91102   0.95017   0.95489
 Alpha virt. eigenvalues --    0.95795   0.95877   0.97454   0.97517   1.00280
 Alpha virt. eigenvalues --    1.00384   1.01250   1.02879   1.04383   1.04751
 Alpha virt. eigenvalues --    1.06339   1.07194   1.09217   1.09633   1.10347
 Alpha virt. eigenvalues --    1.11270   1.12065   1.12243   1.13048   1.15847
 Alpha virt. eigenvalues --    1.16420   1.17518   1.20456   1.21022   1.21484
 Alpha virt. eigenvalues --    1.22095   1.23108   1.23921   1.24367   1.25491
 Alpha virt. eigenvalues --    1.27396   1.27968   1.28627   1.29047   1.29268
 Alpha virt. eigenvalues --    1.30342   1.31687   1.32812   1.33160   1.34012
 Alpha virt. eigenvalues --    1.34863   1.35271   1.36459   1.37640   1.37735
 Alpha virt. eigenvalues --    1.37885   1.38563   1.38932   1.39052   1.41335
 Alpha virt. eigenvalues --    1.41378   1.43051   1.43599   1.44388   1.45502
 Alpha virt. eigenvalues --    1.45786   1.46569   1.48499   1.51154   1.52423
 Alpha virt. eigenvalues --    1.55125   1.55876   1.56241   1.56497   1.57274
 Alpha virt. eigenvalues --    1.58424   1.58949   1.59421   1.60600   1.60643
 Alpha virt. eigenvalues --    1.60976   1.62178   1.62523   1.62821   1.63901
 Alpha virt. eigenvalues --    1.64676   1.65440   1.68502   1.70615   1.70676
 Alpha virt. eigenvalues --    1.71122   1.72275   1.72392   1.72679   1.72713
 Alpha virt. eigenvalues --    1.73690   1.75457   1.75987   1.77245   1.77334
 Alpha virt. eigenvalues --    1.78709   1.78727   1.78811   1.79193   1.80113
 Alpha virt. eigenvalues --    1.80694   1.81573   1.81671   1.82144   1.82582
 Alpha virt. eigenvalues --    1.83719   1.83767   1.84674   1.85142   1.85373
 Alpha virt. eigenvalues --    1.85496   1.85971   1.86765   1.87067   1.87372
 Alpha virt. eigenvalues --    1.87627   1.89112   1.89947   1.90380   1.90505
 Alpha virt. eigenvalues --    1.90962   1.91301   1.92471   1.93031   1.95446
 Alpha virt. eigenvalues --    1.95755   1.97235   1.97473   1.98637   1.99685
 Alpha virt. eigenvalues --    2.00114   2.00904   2.01831   2.01989   2.02548
 Alpha virt. eigenvalues --    2.06254   2.06780   2.07714   2.07769   2.08181
 Alpha virt. eigenvalues --    2.10218   2.11539   2.11617   2.11980   2.14769
 Alpha virt. eigenvalues --    2.15174   2.15776   2.16715   2.17027   2.19085
 Alpha virt. eigenvalues --    2.19674   2.20905   2.21535   2.23175   2.24070
 Alpha virt. eigenvalues --    2.24543   2.25011   2.25377   2.25668   2.26368
 Alpha virt. eigenvalues --    2.26724   2.27918   2.28032   2.28362   2.29478
 Alpha virt. eigenvalues --    2.30403   2.30532   2.30741   2.32384   2.34079
 Alpha virt. eigenvalues --    2.37754   2.39242   2.39653   2.40330   2.41411
 Alpha virt. eigenvalues --    2.42966   2.44337   2.45148   2.45271   2.46014
 Alpha virt. eigenvalues --    2.46660   2.47934   2.48237   2.49974   2.50867
 Alpha virt. eigenvalues --    2.51801   2.53704   2.53986   2.58677   2.59843
 Alpha virt. eigenvalues --    2.62942   2.63612   2.65003   2.65262   2.66824
 Alpha virt. eigenvalues --    2.67272   2.70535   2.70564   2.70664   2.71701
 Alpha virt. eigenvalues --    2.72188   2.72285   2.73958   2.74885   2.75035
 Alpha virt. eigenvalues --    2.75134   2.76043   2.76090   2.78968   2.80648
 Alpha virt. eigenvalues --    2.81159   2.83863   2.86021   2.91744   2.93478
 Alpha virt. eigenvalues --    2.93721   2.94303   2.95720   2.95944   2.96364
 Alpha virt. eigenvalues --    2.97201   2.97381   2.97907   2.98780   3.02539
 Alpha virt. eigenvalues --    3.02863   3.04001   3.06173   3.06497   3.08582
 Alpha virt. eigenvalues --    3.09210   3.09473   3.13743   3.19168   3.19271
 Alpha virt. eigenvalues --    3.19826   3.20045   3.22276   3.23156   3.23815
 Alpha virt. eigenvalues --    3.24374   3.24690   3.24851   3.25356   3.29700
 Alpha virt. eigenvalues --    3.32215   3.38674   3.42971   3.50218   3.51062
 Alpha virt. eigenvalues --    3.51719   3.56209   3.60665   3.62304   3.66484
 Alpha virt. eigenvalues --    3.78883   3.80898   3.83660   3.87671
          Condensed to atoms (all electrons):
 Mulliken charges:
               1
     1  C    0.067181
     2  C    0.067048
     3  C    0.039643
     4  C   -0.143022
     5  C   -0.136100
     6  C   -0.017083
     7  H    0.033756
     8  C   -0.017229
     9  C   -0.143266
    10  C   -0.136257
    11  H    0.033655
    12  N   -0.218574
    13  N   -0.218552
    14  B    0.231265
    15  F   -0.278074
    16  F   -0.277844
    17  C   -0.188072
    18  C    0.013587
    19  C    0.016225
    20  C   -0.091072
    21  H    0.033018
    22  C   -0.076704
    23  H    0.030220
    24  C    0.032999
    25  H    0.026600
    26  H   -0.056988
    27  N   -0.142138
    28  H    0.132509
    29  H    0.162696
    30  O   -0.330629
    31  H    0.241543
    32  H    0.239879
    33  O   -0.385561
    34  H    0.186676
    35  H    0.210316
    36  C    0.071152
    37  H    0.065074
    38  H    0.063365
    39  H    0.053857
    40  C    0.045183
    41  H    0.084916
    42  H    0.084873
    43  H    0.061271
    44  C    0.071317
    45  H    0.063493
    46  H    0.063875
    47  H    0.053818
    48  C    0.045243
    49  H    0.084786
    50  H    0.084931
    51  H    0.061194
 Sum of Mulliken charges =  -0.00000
 Mulliken charges with hydrogens summed into heavy atoms:
               1
     1  C    0.067181
     2  C    0.067048
     3  C    0.039643
     4  C   -0.143022
     5  C   -0.102344
     6  C   -0.017083
     8  C   -0.017229
     9  C   -0.143266
    10  C   -0.102603
    12  N   -0.218574
    13  N   -0.218552
    14  B    0.231265
    15  F   -0.278074
    16  F   -0.277844
    17  C   -0.188072
    18  C    0.046604
    19  C    0.046445
    20  C   -0.064472
    22  C   -0.133691
    24  C    0.032999
    27  N    0.153068
    30  O    0.150793
    33  O    0.011432
    36  C    0.253449
    40  C    0.276242
    44  C    0.252504
    48  C    0.276154
 APT charges:
               1
     1  C   -0.214000
     2  C   -0.212255
     3  C    0.226768
     4  C    0.317287
     5  C   -0.298932
     6  C    0.055138
     7  H    0.057539
     8  C    0.054518
     9  C    0.314598
    10  C   -0.298149
    11  H    0.057496
    12  N   -0.824891
    13  N   -0.824152
    14  B    2.160024
    15  F   -0.893978
    16  F   -0.892940
    17  C    0.660392
    18  C   -0.148398
    19  C   -0.161070
    20  C   -0.186305
    21  H    0.121475
    22  C   -0.209091
    23  H    0.116120
    24  C    0.887775
    25  H    0.107935
    26  H    0.167350
    27  N   -1.094509
    28  H    0.605869
    29  H    0.380769
    30  O   -0.867504
    31  H    0.384214
    32  H    0.381113
    33  O   -0.822005
    34  H    0.484721
    35  H    0.347868
    36  C    0.094194
    37  H   -0.033589
    38  H   -0.038739
    39  H   -0.016219
    40  C    0.073426
    41  H   -0.023012
    42  H   -0.021363
    43  H   -0.005610
    44  C    0.094392
    45  H   -0.037687
    46  H   -0.034475
    47  H   -0.016049
    48  C    0.073342
    49  H   -0.020909
    50  H   -0.022818
    51  H   -0.005678
 Sum of APT charges =  -0.00000
 APT charges with hydrogens summed into heavy atoms:
               1
     1  C   -0.214000
     2  C   -0.212255
     3  C    0.226768
     4  C    0.317287
     5  C   -0.241393
     6  C    0.055138
     8  C    0.054518
     9  C    0.314598
    10  C   -0.240653
    12  N   -0.824891
    13  N   -0.824152
    14  B    2.160024
    15  F   -0.893978
    16  F   -0.892940
    17  C    0.660392
    18  C   -0.026923
    19  C   -0.044950
    20  C   -0.078370
    22  C   -0.041741
    24  C    0.887775
    27  N   -0.107871
    30  O   -0.102177
    33  O    0.010584
    36  C    0.005647
    40  C    0.023441
    44  C    0.006182
    48  C    0.023938
 Electronic spatial extent (au):  <R**2>=          12125.2680
 Charge=             -0.0000 electrons
 Dipole moment (field-independent basis, Debye):
    X=             15.9007    Y=             -1.5714    Z=             -2.8092  Tot=             16.2232
 Quadrupole moment (field-independent basis, Debye-Ang):
   XX=            -74.9235   YY=           -133.8427   ZZ=           -164.3626
   XY=             -8.0278   XZ=             -9.3061   YZ=             -5.3348
 Traceless Quadrupole moment (field-independent basis, Debye-Ang):
   XX=             49.4528   YY=             -9.4665   ZZ=            -39.9863
   XY=             -8.0278   XZ=             -9.3061   YZ=             -5.3348
 Octapole moment (field-independent basis, Debye-Ang**2):
  XXX=            965.3725  YYY=             -2.6862  ZZZ=            -32.3781  XYY=            -29.7280
  XXY=            -38.0058  XXZ=            -13.2744  XZZ=             26.0594  YZZ=            -17.2880
  YYZ=             21.4561  XYZ=            -28.9935
 Hexadecapole moment (field-independent basis, Debye-Ang**3):
 XXXX=          -3329.6552 YYYY=          -3245.4318 ZZZZ=          -1175.3147 XXXY=           -182.0956
 XXXZ=            134.9681 YYYX=             -9.6250 YYYZ=             -5.3052 ZZZX=           -161.3298
 ZZZY=            -60.5177 XXYY=          -1930.0656 XXZZ=          -1999.4482 YYZZ=           -837.1061
 XXYZ=           -143.0359 YYXZ=             46.4713 ZZXY=            -90.0114
 N-N= 2.515204029829D+03 E-N=-8.010605284425D+03  KE= 1.263484048778D+03
  Exact polarizability: 492.184   0.725 454.051 -45.009   0.462 246.320
 Approx polarizability: 378.198   0.462 429.215 -25.830   0.816 240.887
   1 Symmetry operations used in ECPInt.
 ECPInt:  NShTT=   27495 NPrTT=   99213 LenC2=   23164 LenP2D=   56139.
 LDataN:  DoStor=T MaxTD1= 6 Len=  172
 D2PCM: PCM CHGder 2nd derivatives, FixD1E=F FixD2E=F DoIter=F DoCFld=F I1PDM=6
 ECPInt:  NShTT=   27495 NPrTT=   99213 LenC2=   23164 LenP2D=   56139.
 LDataN:  DoStor=T MaxTD1= 5 Len=  102
 D1PCM: PCM CHGder 1st derivatives, ID1Alg=3 FixD1E=F DoIter=F DoCFld=F I1PDM=6.
 Calling FoFJK, ICntrl=  10105127 FMM=F ISym2X=0 I1Cent= 0 IOpClX= 0 NMat=1 NMatS=1 NMatT=0.
 Calling FoFJK, ICntrl=  10002127 FMM=F ISym2X=0 I1Cent= 0 IOpClX= 0 NMat=1 NMatS=1 NMatT=0.
 Full mass-weighted force constant matrix:
 Low frequencies ---  -43.0143   -0.0008    0.0004    0.0009   12.3751   23.8362
 Low frequencies ---   24.6129   28.5026   35.8720
 ******    1 imaginary frequencies (negative Signs) ****** 
 Diagonal vibrational polarizability:
      174.2052933     200.6183930     251.8763920
 Harmonic frequencies (cm**-1), IR intensities (KM/Mole), Raman scattering
 activities (A**4/AMU), depolarization ratios for plane and unpolarized
 incident light, reduced masses (AMU), force constants (mDyne/A),
 and normal coordinates:
                      1                      2                      3
                      A                      A                      A
 Frequencies --    -39.8542                20.6559                35.7920
 Red. masses --      2.9186                 5.0259                 5.0774
 Frc consts  --      0.0027                 0.0013                 0.0038
 IR Inten    --      1.3673                 0.1226                 1.8006
  Atom  AN      X      Y      Z        X      Y      Z        X      Y      Z
     1   6    -0.01  -0.00  -0.03    -0.01  -0.00   0.06    -0.03  -0.01  -0.06
     2   6     0.01  -0.00   0.02    -0.01  -0.00   0.07    -0.04  -0.01  -0.07
     3   6    -0.00   0.00  -0.01    -0.00  -0.00   0.13    -0.04  -0.01  -0.10
     4   6    -0.01   0.00  -0.05    -0.01  -0.00   0.07    -0.03  -0.01  -0.08
     5   6    -0.01  -0.00  -0.05    -0.02   0.00  -0.01    -0.02  -0.00  -0.03
     6   6    -0.01  -0.00  -0.03    -0.03   0.00  -0.06    -0.01  -0.00   0.01
     7   1    -0.02  -0.00  -0.06    -0.03   0.00  -0.02    -0.02  -0.00  -0.03
     8   6     0.01  -0.00   0.05    -0.03  -0.00  -0.06    -0.03   0.00   0.00
     9   6     0.01  -0.00   0.04    -0.01   0.00   0.08    -0.05  -0.01  -0.09
    10   6     0.02  -0.00   0.06    -0.02  -0.00  -0.00    -0.05  -0.00  -0.04
    11   1     0.02  -0.00   0.07    -0.02  -0.00  -0.01    -0.05  -0.00  -0.05
    12   7    -0.01  -0.00  -0.02    -0.03   0.00  -0.02    -0.02  -0.00  -0.00
    13   7     0.01  -0.00   0.02    -0.03  -0.00  -0.02    -0.03  -0.00  -0.01
    14   5     0.00  -0.00   0.00    -0.03  -0.00  -0.05    -0.02   0.00   0.02
    15   9    -0.00   0.01  -0.00    -0.07   0.00  -0.07     0.02   0.00   0.04
    16   9     0.00  -0.03  -0.00    -0.00  -0.00  -0.08    -0.05   0.01   0.05
    17   6    -0.00   0.02  -0.01    -0.00   0.00   0.10    -0.03  -0.01  -0.02
    18   6     0.00   0.19  -0.00    -0.04   0.02   0.09     0.05  -0.00   0.01
    19   6    -0.00  -0.13  -0.01     0.03  -0.01   0.08    -0.09  -0.02   0.03
    20   6     0.00   0.21  -0.00    -0.05   0.02   0.05     0.07  -0.00   0.08
    21   1     0.01   0.30  -0.01    -0.06   0.03   0.11     0.10   0.00  -0.04
    22   6    -0.00  -0.11  -0.00     0.02  -0.01   0.04    -0.07  -0.01   0.11
    23   1    -0.01  -0.25  -0.01     0.05  -0.02   0.09    -0.15  -0.02   0.01
    24   6     0.00   0.06   0.00    -0.02   0.00   0.03     0.00  -0.01   0.14
    25   1     0.01   0.34   0.00    -0.08   0.03   0.04     0.12   0.00   0.11
    26   1    -0.01  -0.20  -0.00     0.04  -0.02   0.02    -0.11  -0.01   0.14
    27   7     0.00   0.07   0.00    -0.03   0.00  -0.01     0.02  -0.00   0.20
    28   1    -0.00  -0.02   0.01     0.00  -0.01  -0.04     0.00   0.00   0.21
    29   1     0.00   0.19   0.01    -0.05   0.01  -0.02     0.05   0.00   0.21
    30   8     0.00  -0.08   0.01     0.15  -0.02  -0.17     0.23   0.04  -0.01
    31   1     0.00  -0.08   0.01     0.15  -0.02  -0.20     0.22   0.05  -0.03
    32   1    -0.00  -0.08   0.00     0.14  -0.02  -0.19     0.24   0.05  -0.03
    33   8    -0.01  -0.10  -0.00     0.23   0.01  -0.10     0.21   0.02  -0.04
    34   1    -0.01  -0.09  -0.00     0.20   0.00  -0.13     0.20   0.03  -0.04
    35   1     0.03  -0.10   0.02     0.24   0.01  -0.08     0.22   0.02  -0.03
    36   6    -0.02  -0.00  -0.08     0.00  -0.00   0.16    -0.04  -0.01  -0.16
    37   1     0.04  -0.14  -0.19    -0.03  -0.08   0.16     0.00   0.02  -0.19
    38   1    -0.11   0.13  -0.16     0.03   0.06   0.15    -0.09  -0.04  -0.17
    39   1     0.01  -0.00   0.08     0.02  -0.01   0.24    -0.04  -0.01  -0.19
    40   6    -0.01  -0.00  -0.04    -0.05   0.00  -0.13    -0.00   0.00   0.06
    41   1    -0.01  -0.01  -0.03    -0.01   0.01  -0.17    -0.03   0.01   0.08
    42   1    -0.01  -0.00  -0.03    -0.09  -0.00  -0.15     0.02   0.00   0.07
    43   1    -0.01  -0.00  -0.04    -0.05   0.00  -0.13    -0.00   0.00   0.07
    44   6     0.02  -0.01   0.07     0.01   0.00   0.17    -0.06  -0.01  -0.16
    45   1     0.16   0.23   0.22     0.04  -0.07   0.16    -0.08   0.06  -0.14
    46   1    -0.07  -0.26   0.26    -0.03   0.08   0.17    -0.04  -0.10  -0.15
    47   1    -0.04  -0.01  -0.22     0.03   0.00   0.25    -0.09  -0.01  -0.26
    48   6     0.01  -0.00   0.05    -0.04  -0.00  -0.13    -0.03   0.01   0.04
    49   1     0.02  -0.00   0.05    -0.09  -0.00  -0.15    -0.00   0.01   0.05
    50   1     0.01  -0.01   0.05    -0.01  -0.00  -0.16    -0.05   0.00   0.06
    51   1     0.02  -0.00   0.05    -0.04  -0.00  -0.13    -0.03   0.01   0.05
                      4                      5                      6
                      A                      A                      A
 Frequencies --     43.1540                49.7921                54.4799
 Red. masses --      4.2774                 6.2626                 5.2737
 Frc consts  --      0.0047                 0.0091                 0.0092
 IR Inten    --      2.5521                 3.4775                 9.7048
  Atom  AN      X      Y      Z        X      Y      Z        X      Y      Z
     1   6     0.04  -0.05   0.01     0.01  -0.01   0.02    -0.00  -0.00   0.01
     2   6    -0.03  -0.05  -0.01     0.00  -0.01   0.02     0.00  -0.00  -0.02
     3   6     0.00  -0.07  -0.00     0.02  -0.01   0.09    -0.00   0.00  -0.01
     4   6     0.08  -0.06   0.03     0.01  -0.01  -0.04    -0.01   0.00   0.02
     5   6     0.10  -0.03   0.05     0.01  -0.01  -0.13    -0.01  -0.00   0.04
     6   6     0.08  -0.00   0.04     0.00   0.00  -0.12    -0.00  -0.01   0.04
     7   1     0.13  -0.03   0.06     0.00  -0.00  -0.18    -0.01  -0.00   0.05
     8   6    -0.07  -0.00  -0.02    -0.03  -0.00  -0.12     0.01  -0.01  -0.03
     9   6    -0.07  -0.06  -0.00    -0.01  -0.01  -0.03     0.01   0.00  -0.03
    10   6    -0.09  -0.03  -0.01    -0.03  -0.01  -0.12     0.01  -0.00  -0.04
    11   1    -0.12  -0.03  -0.01    -0.04  -0.01  -0.18     0.01  -0.00  -0.05
    12   7     0.04  -0.01   0.02     0.00  -0.00  -0.04    -0.00  -0.01   0.02
    13   7    -0.03  -0.01  -0.01    -0.01  -0.00  -0.04     0.00  -0.01  -0.02
    14   5     0.00   0.01  -0.01     0.02   0.00   0.10     0.00  -0.01   0.00
    15   9    -0.02   0.02  -0.03     0.21   0.00   0.21     0.00  -0.03   0.00
    16   9     0.02   0.06  -0.03    -0.13   0.01   0.26     0.00   0.00   0.00
    17   6     0.00  -0.08  -0.01     0.02  -0.02   0.07     0.00   0.01  -0.00
    18   6    -0.00   0.01  -0.01    -0.02   0.02   0.05     0.00   0.05  -0.00
    19   6     0.00  -0.15  -0.01     0.04  -0.04   0.04    -0.00  -0.02  -0.00
    20   6    -0.00   0.04  -0.01    -0.03   0.03   0.02     0.00   0.04   0.00
    21   1    -0.00   0.05  -0.01    -0.04   0.03   0.07     0.00   0.08  -0.00
    22   6     0.00  -0.09  -0.01     0.04  -0.02   0.01    -0.00  -0.02   0.00
    23   1     0.01  -0.21  -0.01     0.07  -0.06   0.05    -0.01  -0.03  -0.00
    24   6    -0.00   0.01  -0.01     0.00   0.01  -0.00     0.00  -0.01   0.00
    25   1    -0.01   0.12  -0.01    -0.05   0.05   0.01     0.01   0.07   0.00
    26   1     0.01  -0.10  -0.01     0.05  -0.03  -0.01    -0.00  -0.01   0.01
    27   7    -0.00   0.06  -0.02    -0.00   0.03  -0.03     0.00  -0.04   0.00
    28   1    -0.00   0.07  -0.02     0.01   0.02  -0.04     0.00  -0.12   0.00
    29   1    -0.00   0.13  -0.02    -0.02   0.05  -0.04    -0.00  -0.03   0.00
    30   8    -0.02   0.23   0.00    -0.05   0.03   0.02     0.01  -0.32  -0.02
    31   1    -0.05   0.25  -0.02    -0.05   0.03   0.02     0.10  -0.38  -0.07
    32   1     0.01   0.25   0.03    -0.05   0.03   0.02    -0.08  -0.39   0.03
    33   8    -0.04   0.17  -0.02    -0.03   0.02   0.04    -0.02   0.41   0.01
    34   1    -0.03   0.20  -0.01    -0.03   0.03   0.04     0.00   0.16   0.01
    35   1     0.05   0.16   0.03    -0.01   0.02   0.05    -0.10   0.44   0.26
    36   6     0.09  -0.09   0.03     0.02  -0.03  -0.04    -0.01   0.01   0.01
    37   1     0.11  -0.18  -0.03     0.05  -0.19  -0.13     0.01  -0.02  -0.02
    38   1     0.04  -0.04  -0.01    -0.05   0.11  -0.11    -0.03   0.03  -0.01
    39   1     0.13  -0.10   0.11     0.07  -0.03   0.14    -0.01   0.00   0.04
    40   6     0.09   0.04   0.05    -0.01   0.02  -0.18    -0.00  -0.01   0.05
    41   1     0.07   0.04   0.06     0.03   0.11  -0.25    -0.01  -0.02   0.06
    42   1     0.09   0.06   0.06    -0.07  -0.07  -0.24     0.01  -0.01   0.05
    43   1     0.12   0.04   0.04     0.02   0.02  -0.08    -0.01  -0.01   0.05
    44   6    -0.08  -0.10   0.04    -0.01  -0.01  -0.01     0.01   0.00  -0.02
    45   1     0.05   0.07   0.15    -0.06  -0.14  -0.08     0.05   0.08   0.02
    46   1    -0.14  -0.31   0.18     0.01   0.13  -0.09    -0.02  -0.08   0.03
    47   1    -0.15  -0.10  -0.18     0.02  -0.01   0.15    -0.01   0.00  -0.12
    48   6    -0.08   0.04  -0.03    -0.04  -0.00  -0.20     0.01  -0.01  -0.04
    49   1    -0.08   0.04  -0.03    -0.11   0.08  -0.26    -0.00  -0.01  -0.04
    50   1    -0.07   0.06  -0.03     0.01  -0.09  -0.28     0.01  -0.02  -0.05
    51   1    -0.11   0.04  -0.04    -0.02  -0.00  -0.10     0.01  -0.01  -0.04
                      7                      8                      9
                      A                      A                      A
 Frequencies --     67.9132                79.3515                85.5772
 Red. masses --      3.1771                 2.2447                 2.6173
 Frc consts  --      0.0086                 0.0083                 0.0113
 IR Inten    --      0.1846                 2.0804                 0.2599
  Atom  AN      X      Y      Z        X      Y      Z        X      Y      Z
     1   6    -0.01   0.01  -0.02     0.01  -0.03   0.01     0.01  -0.02  -0.04
     2   6     0.01   0.01   0.02    -0.01  -0.02   0.03    -0.02  -0.03  -0.03
     3   6    -0.00   0.02  -0.00     0.01  -0.03   0.05    -0.01  -0.03  -0.06
     4   6    -0.03   0.02  -0.06     0.02  -0.03  -0.03     0.02  -0.03  -0.01
     5   6    -0.02   0.01   0.01     0.03  -0.02  -0.03     0.03  -0.02   0.01
     6   6    -0.00   0.00   0.08     0.03  -0.01   0.01     0.02  -0.01  -0.01
     7   1    -0.02   0.01   0.01     0.04  -0.02  -0.05     0.04  -0.02   0.03
     8   6     0.00   0.00  -0.08    -0.02  -0.01   0.00    -0.03  -0.01   0.00
     9   6     0.03   0.02   0.06    -0.02  -0.03   0.02    -0.03  -0.03   0.02
    10   6     0.02   0.01  -0.01    -0.03  -0.02   0.00    -0.03  -0.02   0.03
    11   1     0.02   0.01  -0.00    -0.04  -0.02  -0.01    -0.04  -0.02   0.06
    12   7     0.00   0.01   0.05     0.02  -0.01   0.03     0.01  -0.01  -0.03
    13   7    -0.00   0.01  -0.05    -0.01  -0.01   0.02    -0.02  -0.01  -0.03
    14   5     0.00   0.00   0.00    -0.00  -0.00  -0.00    -0.00  -0.00  -0.00
    15   9     0.00  -0.05   0.00    -0.05  -0.00  -0.03     0.05   0.00   0.02
    16   9    -0.00   0.05   0.00     0.03   0.01  -0.04    -0.04   0.01   0.04
    17   6    -0.00   0.02  -0.00     0.00  -0.02   0.03    -0.01  -0.02  -0.05
    18   6     0.00  -0.02  -0.00    -0.01  -0.02   0.03     0.02  -0.07  -0.04
    19   6    -0.00   0.03  -0.00     0.02   0.03   0.02    -0.03   0.08  -0.03
    20   6     0.00  -0.05  -0.00    -0.02   0.04   0.01     0.02   0.01  -0.02
    21   1     0.00  -0.04  -0.00    -0.03  -0.07   0.04     0.03  -0.15  -0.05
    22   6    -0.00   0.01  -0.00     0.02   0.08   0.01    -0.02   0.14  -0.01
    23   1    -0.00   0.07  -0.00     0.03   0.02   0.03    -0.04   0.11  -0.04
    24   6    -0.00  -0.04  -0.00    -0.00   0.10  -0.00     0.00   0.11  -0.00
    25   1     0.00  -0.08  -0.00    -0.03   0.05   0.01     0.04  -0.02  -0.01
    26   1    -0.00   0.02  -0.00     0.03   0.11  -0.00    -0.03   0.19  -0.00
    27   7     0.00  -0.06  -0.00    -0.01   0.15  -0.02     0.01   0.16   0.02
    28   1    -0.00  -0.04   0.00     0.00   0.13  -0.02    -0.00   0.16   0.03
    29   1     0.00  -0.09  -0.00    -0.02   0.15  -0.02     0.02   0.14   0.02
    30   8    -0.00   0.02   0.00    -0.02  -0.07  -0.01     0.03  -0.09   0.01
    31   1    -0.01   0.03  -0.00     0.02  -0.09   0.02     0.08  -0.12   0.06
    32   1     0.01   0.03   0.00    -0.06  -0.09  -0.04    -0.01  -0.12  -0.03
    33   8    -0.00  -0.03  -0.00     0.03  -0.02   0.04     0.00  -0.04  -0.01
    34   1    -0.00  -0.01  -0.00     0.01  -0.04   0.03     0.01  -0.07  -0.00
    35   1     0.00  -0.03  -0.02    -0.03  -0.01   0.02    -0.08  -0.03  -0.06
    36   6    -0.05   0.02  -0.18     0.01  -0.05  -0.12     0.03  -0.01   0.07
    37   1     0.03  -0.00  -0.27     0.10  -0.21  -0.27    -0.08   0.26   0.29
    38   1    -0.15   0.04  -0.24    -0.13   0.09  -0.23     0.22  -0.26   0.23
    39   1    -0.04   0.02  -0.15     0.06  -0.05   0.06    -0.04  -0.01  -0.25
    40   6     0.01  -0.01   0.18     0.04   0.01   0.05     0.02  -0.00  -0.01
    41   1    -0.04  -0.05   0.24     0.01  -0.03   0.10     0.03   0.04  -0.03
    42   1     0.09   0.02   0.22     0.08   0.06   0.09     0.01  -0.03  -0.03
    43   1    -0.00  -0.01   0.15     0.04   0.01  -0.00     0.04   0.00   0.03
    44   6     0.05   0.01   0.21    -0.03  -0.02  -0.03    -0.02  -0.05   0.10
    45   1     0.21   0.11   0.31    -0.23  -0.33  -0.22     0.14   0.13   0.23
    46   1    -0.06  -0.09   0.36     0.09   0.33  -0.28    -0.11  -0.26   0.27
    47   1     0.03   0.02   0.08     0.06  -0.02   0.36    -0.08  -0.05  -0.13
    48   6    -0.01  -0.01  -0.19    -0.03   0.00  -0.00    -0.04   0.01  -0.01
    49   1    -0.10   0.02  -0.23    -0.02  -0.02   0.01    -0.06   0.06  -0.04
    50   1     0.05  -0.05  -0.26    -0.02   0.03   0.01    -0.02  -0.02  -0.05
    51   1     0.00  -0.01  -0.15    -0.04   0.00  -0.04    -0.04   0.01   0.04
                     10                     11                     12
                      A                      A                      A
 Frequencies --    104.3671               115.4497               130.1513
 Red. masses --      4.6462                 2.5078                 1.3667
 Frc consts  --      0.0298                 0.0197                 0.0136
 IR Inten    --     10.0193                 0.2615                 0.4099
  Atom  AN      X      Y      Z        X      Y      Z        X      Y      Z
     1   6    -0.00   0.00   0.01    -0.02   0.00  -0.07    -0.01  -0.00   0.01
     2   6    -0.00  -0.00  -0.01    -0.02   0.00  -0.06    -0.00   0.00  -0.04
     3   6     0.00   0.00   0.01    -0.02   0.00  -0.09    -0.01   0.00  -0.01
     4   6    -0.01   0.00  -0.01    -0.00  -0.00   0.01     0.01  -0.01   0.05
     5   6    -0.01   0.00  -0.02     0.01  -0.00   0.06     0.01  -0.00   0.05
     6   6    -0.01  -0.00  -0.00    -0.00   0.00   0.00     0.00   0.00   0.00
     7   1    -0.02   0.00  -0.04     0.02  -0.00   0.13     0.02  -0.00   0.07
     8   6    -0.01   0.00  -0.00    -0.00  -0.00  -0.00     0.00  -0.00  -0.01
     9   6    -0.01  -0.00  -0.04     0.00   0.01   0.04    -0.00   0.00  -0.03
    10   6    -0.01   0.00  -0.04     0.01   0.00   0.08     0.00  -0.00  -0.01
    11   1    -0.02   0.00  -0.06     0.03   0.00   0.15     0.01  -0.00   0.01
    12   7     0.00  -0.00   0.02    -0.02   0.00  -0.08    -0.01   0.00  -0.01
    13   7     0.00   0.00   0.02    -0.02   0.00  -0.08    -0.00  -0.00  -0.03
    14   5     0.00   0.00   0.01    -0.02   0.00  -0.04    -0.01  -0.00  -0.01
    15   9    -0.02  -0.00  -0.00     0.06   0.00  -0.00     0.01  -0.02  -0.00
    16   9     0.01  -0.00  -0.01    -0.08   0.00   0.02    -0.02   0.01   0.00
    17   6     0.00   0.00  -0.00    -0.02  -0.00  -0.08    -0.01   0.02  -0.01
    18   6    -0.02  -0.01  -0.01     0.01   0.04  -0.07    -0.00  -0.03  -0.01
    19   6     0.02   0.02  -0.01    -0.03  -0.05  -0.06    -0.01   0.07  -0.01
    20   6    -0.03  -0.02  -0.03     0.02   0.03  -0.04    -0.00  -0.04  -0.00
    21   1    -0.04  -0.02   0.00     0.03   0.07  -0.08     0.00  -0.06  -0.01
    22   6     0.02   0.01  -0.03    -0.03  -0.05  -0.03    -0.01   0.07  -0.00
    23   1     0.03   0.03  -0.01    -0.06  -0.08  -0.07    -0.01   0.11  -0.01
    24   6    -0.01  -0.01  -0.05    -0.00  -0.01  -0.02    -0.00   0.01  -0.00
    25   1    -0.04  -0.03  -0.04     0.04   0.07  -0.03     0.00  -0.08  -0.00
    26   1     0.03   0.03  -0.04    -0.05  -0.07  -0.01    -0.01   0.09   0.00
    27   7    -0.02  -0.01  -0.08     0.00  -0.02   0.01    -0.00  -0.01   0.00
    28   1    -0.00  -0.00  -0.09    -0.01  -0.03   0.02    -0.01   0.01   0.01
    29   1    -0.04  -0.03  -0.09     0.02   0.01   0.01     0.00  -0.05   0.01
    30   8    -0.16   0.01  -0.04     0.00   0.01   0.03     0.01  -0.01   0.01
    31   1    -0.17   0.01  -0.06    -0.01   0.02   0.01     0.01  -0.01   0.01
    32   1    -0.16   0.01  -0.05     0.01   0.02   0.04     0.01  -0.01   0.00
    33   8     0.29  -0.00   0.33     0.08   0.01   0.09     0.00  -0.01   0.00
    34   1     0.14   0.02   0.19     0.05   0.02   0.05     0.00  -0.01   0.00
    35   1     0.27  -0.00   0.28     0.10   0.01   0.10    -0.03  -0.00  -0.03
    36   6    -0.02   0.01  -0.03     0.01  -0.01   0.09     0.01  -0.04   0.00
    37   1    -0.03   0.12   0.03    -0.01  -0.13   0.06     0.14  -0.45  -0.28
    38   1     0.02  -0.08   0.02     0.02   0.09   0.06    -0.22   0.32  -0.21
    39   1    -0.05   0.02  -0.15     0.05  -0.01   0.22     0.12  -0.04   0.46
    40   6    -0.01  -0.01  -0.01     0.01   0.00   0.07    -0.00   0.01  -0.04
    41   1    -0.00  -0.02  -0.01    -0.02   0.02   0.08     0.03   0.10  -0.12
    42   1    -0.01   0.00  -0.01     0.04  -0.01   0.07    -0.07  -0.06  -0.10
    43   1    -0.02  -0.01  -0.02     0.01   0.00   0.09     0.02   0.01   0.04
    44   6    -0.02  -0.02  -0.05     0.02   0.03   0.09     0.01   0.00   0.03
    45   1     0.12   0.26   0.11    -0.13  -0.33  -0.09     0.12   0.13   0.12
    46   1    -0.09  -0.33   0.14     0.09   0.42  -0.13    -0.06  -0.14   0.15
    47   1    -0.10  -0.02  -0.39     0.12   0.02   0.54    -0.02   0.00  -0.14
    48   6    -0.00   0.01   0.02     0.00  -0.01   0.02     0.01  -0.00   0.06
    49   1     0.02  -0.01   0.03    -0.00   0.05  -0.00     0.09  -0.07   0.12
    50   1    -0.02   0.04   0.04    -0.00  -0.06  -0.01    -0.04   0.06   0.14
    51   1    -0.01   0.01  -0.01     0.02  -0.01   0.09     0.00  -0.00  -0.00
                     13                     14                     15
                      A                      A                      A
 Frequencies --    148.2328               149.2843               153.1311
 Red. masses --      2.0503                 3.1386                 1.6359
 Frc consts  --      0.0265                 0.0412                 0.0226
 IR Inten    --      0.9239                 8.6079                 7.0264
  Atom  AN      X      Y      Z        X      Y      Z        X      Y      Z
     1   6     0.01   0.00   0.04    -0.01  -0.00   0.02    -0.00   0.00  -0.02
     2   6    -0.00   0.00  -0.01     0.00   0.00   0.05     0.00  -0.00  -0.01
     3   6     0.01   0.00   0.01     0.01   0.00   0.02     0.02  -0.00   0.04
     4   6    -0.02   0.01   0.00    -0.03   0.00   0.02    -0.01   0.01  -0.03
     5   6    -0.03  -0.00   0.01    -0.04  -0.01   0.01    -0.03  -0.00  -0.07
     6   6    -0.01  -0.01   0.03    -0.03  -0.02  -0.00    -0.02  -0.01  -0.06
     7   1    -0.04  -0.00  -0.03    -0.05  -0.01   0.00    -0.03  -0.00  -0.07
     8   6    -0.02   0.01  -0.03    -0.02   0.02   0.04    -0.02   0.01  -0.05
     9   6    -0.02  -0.01  -0.00    -0.03  -0.01   0.02    -0.01  -0.01  -0.03
    10   6    -0.03   0.00  -0.03    -0.03   0.01   0.02    -0.03   0.00  -0.06
    11   1    -0.04   0.00  -0.02    -0.05   0.01  -0.01    -0.04   0.00  -0.07
    12   7     0.01  -0.01   0.07    -0.01  -0.01   0.00    -0.01  -0.01  -0.05
    13   7    -0.01   0.01  -0.03     0.00   0.01   0.08    -0.00   0.01  -0.03
    14   5    -0.00   0.00   0.01    -0.01  -0.00   0.03    -0.00  -0.00  -0.02
    15   9    -0.01  -0.09   0.01    -0.04   0.06   0.01     0.03   0.02  -0.00
    16   9     0.00   0.09   0.00     0.01  -0.07   0.00    -0.03  -0.02   0.01
    17   6     0.01  -0.01  -0.01     0.01   0.01  -0.03     0.02   0.00   0.03
    18   6     0.00   0.00  -0.01    -0.00  -0.00  -0.04     0.00  -0.00   0.03
    19   6     0.03  -0.03  -0.02     0.05   0.02  -0.06     0.03   0.01   0.02
    20   6     0.00   0.01  -0.03    -0.00  -0.01  -0.07     0.00  -0.00   0.01
    21   1    -0.00   0.02  -0.01    -0.01  -0.01  -0.03    -0.01  -0.00   0.04
    22   6     0.03  -0.03  -0.04     0.04   0.02  -0.09     0.03   0.01   0.00
    23   1     0.05  -0.05  -0.02     0.08   0.04  -0.05     0.05   0.01   0.03
    24   6     0.02  -0.00  -0.04     0.03  -0.00  -0.09     0.02   0.00  -0.00
    25   1    -0.01   0.02  -0.04    -0.03  -0.02  -0.08    -0.01  -0.01   0.01
    26   1     0.04  -0.04  -0.05     0.06   0.03  -0.10     0.04   0.01  -0.00
    27   7     0.02   0.01  -0.05     0.03  -0.01  -0.09     0.01  -0.00  -0.02
    28   1     0.01   0.00  -0.05     0.01  -0.01  -0.09     0.02  -0.00  -0.02
    29   1     0.03   0.03  -0.05     0.05  -0.03  -0.09     0.00  -0.01  -0.02
    30   8     0.08   0.00   0.09     0.17  -0.00   0.19     0.01  -0.00   0.01
    31   1     0.08  -0.00   0.10     0.17  -0.00   0.22     0.01  -0.00   0.01
    32   1     0.08   0.00   0.10     0.17   0.00   0.22     0.01   0.00   0.01
    33   8     0.01   0.01   0.01     0.03   0.00   0.02    -0.01  -0.00  -0.01
    34   1     0.03   0.00   0.03     0.07  -0.01   0.06    -0.00  -0.00   0.00
    35   1     0.02   0.01   0.02    -0.00   0.01   0.00    -0.01  -0.00  -0.01
    36   6    -0.04   0.04  -0.05    -0.03   0.01   0.03    -0.01   0.02   0.05
    37   1    -0.04   0.20   0.02     0.01  -0.15  -0.08    -0.04  -0.03   0.06
    38   1    -0.00  -0.09   0.01    -0.10   0.17  -0.05     0.04   0.07   0.05
    39   1    -0.09   0.04  -0.22    -0.00   0.01   0.22    -0.00   0.02   0.11
    40   6    -0.04  -0.04  -0.07    -0.04  -0.04   0.01     0.00  -0.04   0.09
    41   1     0.05   0.16  -0.25    -0.05  -0.19   0.10    -0.12  -0.36   0.36
    42   1    -0.17  -0.25  -0.21     0.03   0.08   0.09     0.22   0.26   0.30
    43   1    -0.01  -0.04   0.17    -0.08  -0.05  -0.15    -0.08  -0.04  -0.25
    44   6    -0.01  -0.02   0.06    -0.05  -0.03  -0.05    -0.01  -0.02   0.03
    45   1    -0.02  -0.14   0.01    -0.06   0.04  -0.03     0.05  -0.01   0.06
    46   1    -0.02   0.09   0.01    -0.02  -0.12  -0.04    -0.05  -0.05   0.08
    47   1     0.00  -0.02   0.20    -0.08  -0.03  -0.14    -0.03  -0.02   0.01
    48   6    -0.01   0.04   0.06    -0.05   0.04  -0.08    -0.00   0.04   0.07
    49   1     0.16  -0.24   0.24    -0.22   0.29  -0.24     0.17  -0.19   0.22
    50   1    -0.10   0.34   0.29     0.06  -0.19  -0.30    -0.10   0.28   0.28
    51   1    -0.10   0.05  -0.27    -0.02   0.04   0.19    -0.07   0.04  -0.19
                     16                     17                     18
                      A                      A                      A
 Frequencies --    167.3628               169.0452               189.7708
 Red. masses --      4.2145                 3.4642                 2.1298
 Frc consts  --      0.0696                 0.0583                 0.0452
 IR Inten    --      2.2251                 6.7368                 0.6228
  Atom  AN      X      Y      Z        X      Y      Z        X      Y      Z
     1   6    -0.02   0.04   0.01    -0.01  -0.03   0.01     0.01  -0.00   0.06
     2   6    -0.01   0.05   0.01    -0.02  -0.02   0.02    -0.02  -0.00  -0.08
     3   6    -0.02   0.04   0.02    -0.03  -0.02   0.02     0.00  -0.00   0.02
     4   6    -0.01   0.03  -0.00     0.04  -0.05  -0.03     0.01  -0.00   0.01
     5   6    -0.01   0.04  -0.02     0.07  -0.01  -0.06    -0.01  -0.00  -0.06
     6   6    -0.01   0.05  -0.01     0.04   0.04  -0.02    -0.00  -0.00  -0.02
     7   1    -0.00   0.04  -0.03     0.11  -0.01  -0.09    -0.02  -0.00  -0.11
     8   6     0.05  -0.01  -0.02     0.01  -0.06  -0.02    -0.00  -0.01   0.01
     9   6     0.05   0.07  -0.02     0.01   0.00  -0.01    -0.01   0.00  -0.04
    10   6     0.08   0.03  -0.04     0.03  -0.03  -0.04     0.01  -0.00   0.02
    11   1     0.11   0.03  -0.06     0.05  -0.03  -0.07     0.02  -0.00   0.09
    12   7    -0.02   0.04   0.00    -0.01   0.01   0.02     0.01  -0.00   0.06
    13   7    -0.01   0.01   0.01    -0.02  -0.04   0.02    -0.02  -0.00  -0.09
    14   5    -0.02   0.02   0.01    -0.02  -0.01   0.02    -0.01   0.00  -0.01
    15   9    -0.02   0.03   0.00    -0.04  -0.01   0.01     0.00  -0.11  -0.01
    16   9    -0.01   0.01   0.01    -0.01  -0.00   0.01    -0.01   0.15  -0.00
    17   6    -0.03  -0.07   0.00    -0.05   0.03  -0.00     0.00  -0.00   0.03
    18   6    -0.05  -0.18  -0.01    -0.08   0.10  -0.01    -0.01   0.01   0.02
    19   6    -0.03  -0.17  -0.01    -0.04   0.08  -0.01     0.01  -0.00   0.02
    20   6    -0.05  -0.17  -0.02    -0.08   0.10  -0.03    -0.01   0.01   0.01
    21   1    -0.06  -0.25   0.00    -0.09   0.14   0.00    -0.02   0.02   0.03
    22   6    -0.03  -0.16  -0.02    -0.05   0.08  -0.03     0.01   0.00   0.00
    23   1    -0.02  -0.22  -0.00    -0.04   0.11  -0.01     0.03  -0.01   0.02
    24   6    -0.05  -0.02  -0.02    -0.07   0.01  -0.03    -0.00   0.00  -0.00
    25   1    -0.06  -0.22  -0.02    -0.09   0.13  -0.03    -0.02   0.02   0.00
    26   1    -0.02  -0.17  -0.03    -0.04   0.09  -0.04     0.02   0.00  -0.01
    27   7    -0.04   0.23  -0.02    -0.07  -0.13  -0.03    -0.00  -0.01  -0.02
    28   1    -0.05   0.25  -0.02    -0.08  -0.14  -0.03     0.00  -0.01  -0.02
    29   1    -0.04   0.33  -0.02    -0.06  -0.17  -0.03    -0.01  -0.01  -0.02
    30   8     0.05  -0.02   0.07     0.08   0.01   0.11     0.01  -0.00   0.01
    31   1     0.12  -0.07   0.14     0.04   0.03   0.08     0.01   0.00   0.02
    32   1    -0.01  -0.07   0.02     0.11   0.04   0.15     0.01   0.00   0.02
    33   8     0.02   0.01   0.00     0.03  -0.00   0.00    -0.00  -0.00  -0.00
    34   1     0.02  -0.01   0.01     0.04   0.01   0.02     0.00  -0.00   0.00
    35   1     0.06   0.01   0.08    -0.01   0.00  -0.05    -0.00  -0.00  -0.01
    36   6     0.01  -0.02   0.01     0.08  -0.11   0.00     0.00   0.00   0.00
    37   1    -0.00  -0.09  -0.01    -0.00   0.01   0.13    -0.00   0.03   0.02
    38   1    -0.01  -0.02  -0.00     0.17  -0.27   0.10     0.02  -0.02   0.02
    39   1     0.07  -0.02   0.04     0.09  -0.11  -0.18    -0.00   0.00  -0.03
    40   6    -0.00   0.08   0.01     0.08   0.14   0.01    -0.00  -0.01  -0.03
    41   1    -0.03   0.02   0.07     0.02   0.12   0.07    -0.03  -0.25   0.12
    42   1     0.03   0.17   0.06     0.09   0.24   0.05     0.08   0.21   0.10
    43   1     0.01   0.09  -0.08     0.15   0.15  -0.08    -0.06  -0.01  -0.29
    44   6     0.07   0.12  -0.00     0.04   0.08   0.01     0.00   0.01  -0.00
    45   1     0.13   0.22   0.06     0.05   0.12   0.02     0.03   0.02   0.01
    46   1     0.02   0.05   0.08     0.01   0.10   0.03    -0.02   0.01   0.02
    47   1     0.09   0.12  -0.11     0.11   0.08  -0.01     0.01   0.01  -0.01
    48   6     0.08  -0.10   0.00     0.03  -0.14  -0.00     0.02  -0.03   0.09
    49   1     0.09  -0.20   0.05     0.08  -0.33   0.09    -0.06   0.36  -0.10
    50   1     0.03  -0.08   0.06    -0.02  -0.01   0.11     0.01  -0.43  -0.12
    51   1     0.14  -0.11  -0.07     0.07  -0.14  -0.20     0.12  -0.03   0.55
                     19                     20                     21
                      A                      A                      A
 Frequencies --    196.5323               199.7720               208.0613
 Red. masses --      1.9786                 5.4625                 2.8099
 Frc consts  --      0.0450                 0.1284                 0.0717
 IR Inten    --      4.4432                 1.2300                 0.0882
  Atom  AN      X      Y      Z        X      Y      Z        X      Y      Z
     1   6    -0.02  -0.00  -0.05    -0.01  -0.01   0.00    -0.02   0.00  -0.02
     2   6    -0.00   0.00  -0.01    -0.01   0.00   0.00     0.01   0.01   0.02
     3   6     0.01   0.00   0.06    -0.00  -0.00  -0.00     0.00   0.01   0.00
     4   6    -0.01  -0.00  -0.04    -0.01  -0.01  -0.00    -0.02  -0.00  -0.09
     5   6    -0.00  -0.00  -0.00    -0.00  -0.00  -0.01    -0.03   0.01  -0.16
     6   6    -0.00   0.00  -0.01    -0.00   0.00  -0.00    -0.02   0.01  -0.06
     7   1     0.01  -0.00   0.04     0.00  -0.00  -0.01    -0.03   0.01  -0.18
     8   6    -0.01   0.00  -0.02    -0.01  -0.00   0.00     0.02   0.01   0.07
     9   6    -0.01   0.00  -0.03    -0.01   0.01   0.00     0.02   0.00   0.10
    10   6    -0.01   0.00  -0.04    -0.00   0.00   0.00     0.03   0.01   0.18
    11   1    -0.01   0.00  -0.02     0.00   0.00  -0.00     0.04   0.01   0.22
    12   7    -0.02   0.00  -0.08    -0.01  -0.00   0.01    -0.01   0.00   0.01
    13   7    -0.01   0.00  -0.04    -0.01   0.00   0.01     0.00   0.01  -0.02
    14   5    -0.02  -0.00  -0.05    -0.02   0.00   0.01    -0.01  -0.00  -0.01
    15   9     0.02   0.03  -0.03    -0.03  -0.00   0.00    -0.00  -0.11  -0.00
    16   9    -0.05  -0.05  -0.02    -0.02   0.00   0.01    -0.01   0.09   0.00
    17   6     0.02   0.00   0.09     0.00  -0.00  -0.01     0.01   0.01   0.01
    18   6    -0.02   0.00   0.07     0.01   0.00  -0.01     0.01  -0.01   0.01
    19   6     0.06   0.00   0.06     0.02  -0.00  -0.01     0.01   0.01   0.00
[...]
 ,0.00002863,0.00004128,-0.00001186,-0.00000299,0.00000332,0.00040440,0
 .00087935,-0.00008256,0.00021860,-0.00001971,-0.00003521,0.00021355,-0
 .00001127,-0.00003455,-0.00009175,0.00000405,0.00002003,-0.01244678,0.
 59066841,-0.00006030,0.00011474,-0.00004344,0.00036236,0.00037646,0.00
 203055,-0.00015893,-0.00042282,0.00025307,0.00001569,-0.00006014,0.000
 07988,-0.00004634,-0.00000700,-0.00001450,0.00000210,0.00002762,-0.000
 01770,-0.00000193,0.00000364,-0.00000796,0.03038116,0.00624502,-0.0710
 5494,0.00100412,-0.00068910,0.00517214,0.00457414,0.00132600,0.0048644
 3,-0.00083373,0.00009928,-0.00336702,0.00010707,-0.00004136,0.00018237
 ,0.00066470,0.00117062,-0.00036771,0.00005869,0.00001996,0.00100446,0.
 00112007,0.00166173,-0.00025181,-0.00081669,-0.00111250,0.00003951,0.0
 0014058,-0.00002682,0.00044932,0.00016640,-0.00015457,-0.00008304,-0.0
 0014818,0.00018302,0.00000201,-0.00006332,0.00003409,-0.00004895,0.000
 01184,-0.00000136,0.00000328,0.00002170,-0.00003473,-0.00000168,-0.000
 00709,0.00000237,-0.00000381,0.00007324,-0.00000104,0.00009517,-0.0000
 0377,0.00002545,0.00000359,0.00000102,-0.00003031,-0.00000178,-0.00007
 494,0.00000046,-0.00001544,0.00001519,-0.00000369,0.00001881,0.0000037
 7,0.00000438,-0.00001047,-0.00000685,-0.00000044,-0.00000726,0.0000000
 6,0.00000088,0.00000012,0.00000012,-0.00000074,-0.00000003,-0.00000044
 ,0.00000020,-0.00000181,-0.00000034,-0.00000007,0.00000123,-0.00000009
 ,0.00000007,0.00000020,0.00003208,-0.00000501,0.00019527,-0.00000469,0
 .00008359,-0.00006854,-0.00001232,-0.00008223,-0.00007267,-0.00000807,
 0.00000143,-0.00005662,-0.00002966,0.00000955,-0.00010715,-0.00002844,
 0.00002058,-0.00000577,0.00002771,-0.00002353,-0.00002043,-0.00000375,
 0.00000307,-0.00001875,0.00017964,0.00007446,0.00096127,-0.00026047,0.
 00018877,0.00007700,0.00028042,-0.00017592,-0.00001979,-0.00002780,0.0
 0000303,-0.00012105,0.00280452,0.00243804,0.54088936,-0.00004307,-0.00
 069498,0.00001881,-0.00230297,0.00017039,0.00009445,0.00004637,0.00063
 508,-0.00000595,-0.00003207,0.00050644,-0.00000262,0.00049564,0.000024
 53,-0.00008118,-0.00009841,-0.00052113,-0.00001310,0.00001238,-0.00003
 018,0.00000157,-0.01324611,0.01224899,0.02685013,-0.00133171,-0.000654
 11,-0.00084705,-0.00072106,-0.00218197,0.00054918,0.00014944,0.0000100
 4,0.00043781,-0.00001291,0.00015001,-0.00013980,0.00316525,0.00122979,
 -0.00122931,-0.00104900,-0.00024220,0.00124864,0.00036209,0.00068641,-
 0.00070043,0.00026380,-0.00008914,-0.00002925,0.00025911,0.00003067,-0
 .00012074,-0.00011886,0.00004800,0.00002764,-0.00005113,-0.00002809,0.
 00002621,0.00000384,-0.00000369,0.00001081,0.00000362,0.00000328,-0.00
 000757,-0.00001640,0.00000830,-0.00000435,0.00000783,0.00000210,0.0000
 0292,0.00004968,0.00000237,-0.00002861,-0.00001042,-0.00000865,0.00000
 115,-0.00000617,0.00000240,0.00000999,-0.00007019,0.00000392,0.0000120
 3,0.00002123,0.00000011,0.00002285,0.00000458,-0.00000121,-0.00001395,
 -0.00000848,0.00000075,-0.00000854,0.00000044,0.00000069,0.00000044,0.
 00000019,-0.00000123,0.00000032,-0.00000351,0.00000122,-0.00000875,0.0
 0000142,-0.00000050,0.00000230,-0.00000039,-0.00000074,0.00000240,-0.0
 0001261,0.00004910,-0.00003474,-0.00004277,-0.00003948,0.00001160,-0.0
 0003660,-0.00000715,0.00002847,-0.00001738,-0.00002050,0.00001405,-0.0
 0000181,0.00006581,0.00002833,0.00006082,-0.00002790,-0.00000023,0.000
 05249,-0.00002294,-0.00002408,0.00001726,-0.00001136,-0.00000328,-0.00
 005748,-0.00023650,-0.00025634,-0.00004813,-0.00001518,0.00001757,-0.0
 0018759,0.00006415,0.00001847,-0.00001060,0.00002946,0.00002653,-0.070
 36722,0.02950927,0.07596314,0.07916479,-0.00002069,-0.00016376,-0.0000
 2403,-0.00124087,-0.00034102,0.00016862,0.00027291,0.00062634,-0.00005
 945,-0.00000213,0.00014809,-0.00001664,0.00015694,0.00002635,-0.000028
 53,-0.00000074,-0.00024444,-0.00002143,0.00000683,-0.00001040,0.000000
 89,-0.00135292,0.00305873,0.00855340,-0.00032538,-0.00031584,0.0002027
 5,0.00011553,0.00044052,-0.00021530,-0.00007393,0.00004954,-0.00016408
 ,0.00011064,0.00019054,-0.00018073,0.00118611,0.00004610,-0.00040289,-
 0.00123927,-0.00021714,0.00128414,0.00019644,-0.00049305,-0.00106117,0
 .00029022,0.00026231,-0.00019100,-0.00004298,0.00003670,-0.00005299,-0
 .00000704,0.00002219,-0.00001647,0.00004104,-0.00003080,0.00002270,-0.
 00001724,0.00000142,0.00000504,-0.00000124,0.00000117,-0.00000494,-0.0
 0002904,0.00000592,0.00001199,0.00000331,0.00000207,0.00000490,0.00002
 920,0.00000091,-0.00002236,-0.00000185,-0.00000398,-0.00000163,-0.0000
 0069,0.00000326,0.00000336,-0.00002844,0.00000234,0.00000936,0.0000030
 0,0.00000037,0.00000273,0.00000073,-0.00000067,-0.00000332,-0.00000123
 ,-0.00000025,0.00000046,0.00000020,0.00000026,-0.00000016,0.00000028,-
 0.00000003,-0.00000024,-0.00000204,-0.00000055,-0.00000033,0.00000105,
 0.00000030,-0.00000070,0.00000104,-0.00000010,0.00000012,-0.00000163,0
 .00001492,-0.00002199,-0.00001087,-0.00001394,0.00000677,-0.00001007,0
 .00000581,0.00001387,-0.00000147,-0.00000485,0.00000789,-0.00000943,0.
 00002903,0.00002414,0.00003400,-0.00001869,0.00000532,0.00002386,-0.00
 002097,-0.00001861,0.00000528,0.00000170,-0.00000168,0.00002221,-0.000
 01678,-0.00011656,0.00000390,-0.00001448,0.00000792,-0.00003716,0.0000
 1605,0.00000672,-0.00000020,0.00000058,0.00000427,0.02903015,-0.080208
 61,-0.08524205,-0.03235544,0.08028520,0.00008082,0.00029298,-0.0000169
 7,0.00092724,-0.00014468,-0.00027809,0.00005642,-0.00016636,0.00002352
 ,0.00000203,-0.00025601,-0.00001787,-0.00024486,-0.00003151,0.00004992
 ,0.00004805,0.00027955,0.00000301,-0.00000700,0.00000715,-0.00000062,0
 .00289163,0.00024919,0.00044632,0.00028114,0.00057584,-0.00012224,-0.0
 0119620,0.00069735,-0.00048918,-0.00001764,-0.00000239,0.00004016,-0.0
 0008678,-0.00018284,0.00013470,-0.00046387,-0.00048263,0.00065502,0.00
 101464,0.00051827,-0.00104821,-0.00091713,-0.00151486,0.00012270,-0.00
 008428,-0.00016022,0.00025967,-0.00012348,0.00000403,0.00003394,0.0000
 4843,-0.00001586,-0.00001758,0.00003617,0.00000418,-0.00000238,-0.0000
 0994,0.00000064,-0.00000439,-0.00000231,-0.00000131,0.00000156,-0.0000
 0307,-0.00000076,0.00000555,-0.00000329,-0.00000168,0.00000034,-0.0000
 1014,-0.00000169,0.00000702,0.00000397,0.00000223,-0.00000122,0.000002
 45,-0.00000043,-0.00000268,0.00002011,-0.00000032,-0.00000278,-0.00000
 857,-0.00000055,-0.00000881,-0.00000185,-0.00000011,0.00000509,0.00000
 413,0.00000060,0.00000323,-0.00000018,-0.00000058,-0.00000013,-0.00000
 040,0.00000012,-0.00000006,0.00000301,0.00000066,0.00000284,-0.0000012
 9,-0.00000030,-0.00000043,-0.00000101,-0.00000004,-0.00000091,0.000010
 52,-0.00002012,0.00000701,0.00001294,0.00001381,-0.00000300,0.00001103
 ,0.00000601,-0.00000663,0.00000586,0.00000679,-0.00000276,-0.00000006,
 -0.00003982,-0.00002017,-0.00002350,0.00001711,-0.00000405,-0.00002360
 ,0.00001793,0.00002612,-0.00000811,-0.00000213,0.00000638,-0.00001920,
 0.00005002,0.00010389,0.00001230,-0.00000071,-0.00000866,0.00004517,-0
 .00001761,-0.00001052,0.00000463,-0.00000836,-0.00000583,0.07510957,-0
 .08524100,-0.25409691,-0.08267554,0.09271154,0.26997050,-0.00007651,-0
 .00072483,-0.00001560,-0.00239691,0.00018796,0.00067027,0.00003738,0.0
 0065021,-0.00002660,-0.00002210,0.00053757,0.00003295,0.00052179,0.000
 03414,-0.00009516,-0.00008441,-0.00057079,0.00003400,0.00001251,-0.000
 03003,-0.00000751,-0.02111786,0.01188705,-0.01883215,-0.00100333,-0.00
 077040,0.00117542,-0.00055533,-0.00232601,-0.00057819,0.00000612,0.000
 01289,-0.00041787,0.00009828,0.00020678,0.00019554,0.00343496,0.001289
 39,0.00025552,-0.00185810,-0.00050299,-0.00111124,0.00029983,-0.000069
 48,0.00000335,0.00099409,0.00125935,0.00044577,0.00029309,0.00002757,0
 .00004194,-0.00003552,-0.00002880,-0.00002583,-0.00011039,0.00005433,0
 .00002877,-0.00003370,0.00000821,-0.00000777,0.00000758,0.00000280,-0.
 00000527,-0.00001304,-0.00000388,0.00000095,0.00000702,0.00000355,0.00
 000319,0.00009170,0.00000217,0.00000852,-0.00001280,0.00000239,0.00000
 207,-0.00000630,-0.00000930,0.00000815,-0.00011083,0.00000423,0.000009
 40,0.00002761,-0.00000114,0.00002981,0.00000586,0.00000050,-0.00001960
 ,-0.00001237,0.00000015,-0.00000903,0.00000067,0.00000130,-0.00000017,
 0.00000059,-0.00000144,-0.00000044,-0.00000720,0.00000008,-0.00000676,
 0.00000309,0.00000005,0.00000081,0.00000204,-0.00000085,0.00000176,-0.
 00000366,0.00005034,0.00004084,-0.00004448,-0.00000692,-0.00001568,-0.
 00004480,-0.00004253,0.00000026,-0.00002108,-0.00002091,-0.00000893,-0
 .00001686,0.00007463,-0.00002777,0.00006528,-0.00002951,0.00000972,0.0
 0006075,-0.00003296,-0.00002402,0.00001863,-0.00000938,-0.00000181,0.0
 0004466,-0.00024043,0.00027985,-0.00018782,0.00006636,0.00004225,-0.00
 005247,-0.00001461,-0.00000197,-0.00001819,0.00002976,-0.00002335,-0.1
 3957585,0.05904144,-0.11592137,0.00576063,-0.00404250,0.00685662,0.153
 69751,-0.00001963,-0.00013453,0.00002675,-0.00120610,-0.00034528,0.000
 22135,0.00027167,0.00060325,-0.00010743,0.00000725,0.00012207,0.000027
 86,0.00013342,0.00002719,-0.00002097,0.00001989,-0.00023236,0.00001350
 ,0.00000591,-0.00000940,-0.00000472,-0.00427987,0.00328188,-0.00758414
 ,-0.00035954,-0.00028019,-0.00007167,0.00013194,0.00043647,0.00019212,
 -0.00001835,0.00005023,0.00017581,0.00018907,0.00019898,0.00019889,0.0
 0123405,0.00005003,-0.00001970,-0.00156844,-0.00020601,-0.00088622,0.0
 0030686,0.00018581,0.00004952,0.00069279,-0.00036134,0.00121215,-0.000
 03092,0.00003645,0.00010919,0.00005806,-0.00004475,-0.00005559,0.00000
 911,0.00003774,0.00002562,-0.00005149,0.00000704,-0.00001337,0.0000020
 9,0.00000208,-0.00000556,-0.00002434,0.00000017,0.00001139,0.00000025,
 0.00000118,0.00000354,0.00006010,0.00000032,0.00001831,-0.00000240,0.0
 0000468,-0.00000163,-0.00000030,-0.00000597,0.00000248,-0.00005548,0.0
 0000272,0.00000255,0.00000667,-0.00000094,0.00000822,0.00000175,0.0000
 0059,-0.00000570,-0.00000241,0.00000004,-0.00000238,0.00000013,0.00000
 032,0.00000014,0.00000010,-0.00000033,0.00000012,-0.00000052,0.0000002
 6,-0.00000143,0.00000015,-0.00000008,0.00000034,0.,-0.00000019,0.00000
 045,0.00000736,0.00001190,0.00003225,-0.00001265,0.00001139,-0.0000133
 2,-0.00001202,-0.00001771,-0.00000799,-0.00000350,-0.00000399,-0.00001
 063,-0.00002104,0.00003054,-0.00002061,0.00002978,-0.00002256,0.000010
 28,0.00002819,-0.00001823,-0.00001731,0.00000466,0.00000258,-0.0000007
 8,0.00005850,-0.00001504,0.00011289,-0.00003616,0.00001960,0.00000123,
 0.00000302,-0.00001954,-0.00001195,-0.00000043,-0.00000049,-0.00000763
 ,0.05850319,-0.08298458,0.07226687,-0.00727031,0.00446441,-0.00848301,
 -0.06445455,0.08320358,-0.00005811,-0.00006360,0.00000850,-0.00019425,
 0.00006119,-0.00016833,-0.00005274,-0.00003303,0.00006875,0.00000181,0
 .00008298,-0.00002009,0.00007448,0.00002149,-0.00000333,-0.00001269,-0
 .00008922,0.00000397,0.00000243,0.00000277,-0.00000060,0.00489999,-0.0
 0451409,0.00813936,0.00004348,-0.00031754,-0.00044348,0.00118391,0.000
 11027,-0.00071236,0.00002893,-0.00000053,0.00018836,0.00008963,0.00011
 243,0.00003715,-0.00053660,0.00004112,0.00040624,-0.00074256,-0.000459
 00,-0.00028217,0.00008687,0.00015584,0.00020477,0.00052842,0.00148716,
 -0.00049910,0.00002526,-0.00001311,-0.00003270,-0.00002011,0.00000957,
 0.00001548,-0.00000830,-0.00000569,-0.00000556,0.00001303,-0.00000246,
 0.00000328,0.00000046,0.00000073,0.00000106,0.00000701,0.00000083,-0.0
 0000442,0.00000075,0.00000016,-0.00000093,-0.00001182,0.00000076,-0.00
 000396,-0.00000003,-0.00000106,0.00000085,-0.00000046,0.00000150,-0.00
 000026,0.00000879,-0.00000096,-0.00000070,0.00000034,0.00000067,-0.000
 00010,0.,0.00000025,0.00000052,-0.00000070,-0.00000074,-0.00000002,0.0
 0000002,0.00000025,0.,0.00000029,0.00000031,0.,-0.00000136,-0.00000081
 ,0.00000007,0.00000068,0.00000039,-0.00000029,0.00000085,0.00000019,0.
 00000010,-0.00000830,0.00000353,-0.00000615,0.00000231,-0.00000530,0.0
 0000373,0.00000183,0.00000125,0.00000197,0.00000080,0.00000007,0.00000
 313,-0.00000080,0.00001634,-0.00000613,0.00000999,-0.00001086,0.000011
 82,0.00000008,-0.00000562,-0.00000420,0.00000334,0.00000504,0.00000360
 ,0.00004180,0.00003285,-0.00000573,0.00001895,-0.00000701,-0.00000890,
 0.00000435,0.00000686,-0.00000292,-0.00000012,-0.00000181,0.00000458,-
 0.11509811,0.07210498,-0.18150412,-0.01573070,0.01096628,-0.01838850,0
 .12327565,-0.07865332,0.19191985,0.00006759,-0.00007240,-0.00001056,0.
 00018328,-0.00154341,0.00004370,-0.00058641,0.00020509,0.00007181,0.00
 000177,0.00009340,0.00000602,0.00010482,-0.00003641,-0.00001870,-0.000
 06353,-0.00008831,0.00001032,0.00000013,-0.00001575,-0.00000101,-0.000
 39706,-0.03303812,-0.00067051,0.00013438,-0.00011281,-0.00005442,0.001
 09769,0.00039466,-0.00019035,-0.00006749,0.00035209,0.00003377,0.00008
 787,-0.00016610,0.00001482,-0.00621495,-0.00060909,0.00129048,-0.00119
 709,0.00077217,0.00004693,0.00039873,0.00025786,-0.00010069,0.00048363
 ,0.00047916,-0.00000489,0.00013567,-0.00011675,-0.00000535,-0.00003343
 ,0.00001545,-0.00001077,-0.00004710,0.00003247,0.00002242,-0.00002853,
 0.00000363,-0.00001249,0.00000381,0.00000041,-0.00000280,-0.00001915,0
 .00000294,0.00001408,0.00000375,-0.00000013,0.00000049,0.00007666,0.00
 000084,-0.00000740,-0.00000703,-0.00000344,0.00000100,-0.00000328,-0.0
 0000572,0.00000602,-0.00009169,0.00000165,0.00001119,0.00001998,-0.000
 00046,0.00002224,0.00000418,-0.00000006,-0.00001438,-0.00000808,0.0000
 0078,-0.00000709,0.00000040,0.00000071,0.00000007,0.00000008,-0.000001
 30,-0.00000008,-0.00000359,0.00000092,-0.00000530,0.00000131,-0.000000
 38,0.00000114,0.00000038,-0.00000086,0.00000117,0.00000665,0.00001638,
 0.00000589,-0.00001760,-0.00000329,-0.00000287,-0.00001661,-0.00000898
 ,0.00000342,-0.00000797,-0.00000923,-0.00000092,-0.00000933,0.00001188
 ,-0.00000353,0.00001860,-0.00000459,0.00000327,0.00001720,-0.00000498,
 -0.00000820,0.00001025,-0.00000597,-0.00000162,0.00007528,0.00007538,-
 0.00001620,-0.00002011,0.00001049,0.00000686,-0.00002644,0.00000623,-0
 .00000365,-0.00004053,0.00002079,0.00000642,-0.04871892,-0.02086385,0.
 00050798,0.00000218,0.00932159,-0.00155559,0.00193024,0.01766450,0.002
 12123,0.05275938,0.00010164,-0.00020880,-0.00002030,0.00014173,-0.0004
 9281,-0.00003054,-0.00015708,0.00034673,0.00002026,-0.00000925,0.00011
 690,0.00000554,0.00010307,-0.00003265,-0.00001889,-0.00005596,-0.00003
 771,0.00000804,-0.00000034,-0.00001499,-0.00000024,0.00178163,-0.00666
 784,-0.00032949,-0.00011946,0.00003806,0.00003132,0.00104164,0.0011374
 2,-0.00017061,-0.00035926,0.00008733,0.00005633,-0.00011426,-0.0001827
 9,0.00002193,-0.00130773,0.00109302,0.00021411,0.00021300,0.00089097,-
 0.00004223,-0.00009038,-0.00045702,-0.00009782,-0.00003389,-0.00042466
 ,0.00012979,0.00007497,-0.00003964,-0.00000816,-0.00002679,0.00000048,
 -0.00000983,-0.00002519,0.00000180,0.00001928,-0.00001771,0.00000356,-
 0.00000122,0.00000251,-0.00000030,-0.00000317,-0.00001628,0.00000340,0
 .00000470,0.00000344,-0.00000036,0.00000148,0.00004492,0.,-0.00000669,
 -0.00000537,-0.00000067,0.00000071,-0.00000297,-0.00000073,0.00000399,
 -0.00005231,0.00000125,0.00000702,0.00001089,-0.00000046,0.00001194,0.
 00000225,-0.00000033,-0.00000778,-0.00000470,0.00000067,-0.00000357,0.
 00000035,0.00000022,0.00000003,0.00000012,-0.00000070,-0.00000006,-0.0
 0000302,0.00000037,-0.00000305,0.00000129,-0.00000029,0.00000040,0.000
 00071,-0.00000047,0.00000082,-0.00000023,0.00001409,0.00000084,-0.0000
 1745,-0.00000806,-0.00000080,-0.00001633,-0.00000866,0.00000565,-0.000
 00903,-0.00000943,0.00000108,0.00000447,-0.00000212,-0.00000279,0.0000
 0956,0.00000283,-0.00000509,0.00001157,0.00000180,0.00000191,0.0000060
 7,-0.00001138,-0.00000097,0.00002473,-0.00000414,-0.00000412,-0.000029
 20,0.00000550,0.00000889,-0.00003075,0.00000500,0.00000087,-0.00001459
 ,0.00001141,0.00000205,-0.02551232,-0.32305267,0.00173003,-0.00101870,
 -0.00762281,0.00132190,-0.00150093,-0.00808998,-0.00104232,0.02697093,
 0.34360966,-0.00000657,0.00001453,0.00001532,0.00003191,0.00025727,0.0
 0043112,0.00008679,-0.00002731,-0.00011876,0.00000147,-0.00002163,0.00
 000762,-0.00002311,0.00000566,0.00000898,0.00001578,0.00002051,-0.0000
 0309,-0.00000051,0.00000258,-0.00000284,-0.00030525,0.00576415,-0.0024
 3063,-0.00005626,0.00002754,-0.00015486,-0.00021563,-0.00004869,-0.000
 01868,0.00002738,-0.00006148,0.00011471,0.00000610,0.00002477,0.000137
 89,0.00131651,0.00011572,0.00099726,0.00005238,-0.00014111,-0.00094117
 ,-0.00039049,-0.00095998,0.00017288,0.00024549,0.00073154,0.00004158,-
 0.00001943,0.00002038,0.00005238,0.00004212,-0.00003374,-0.00001739,-0
 .00001417,0.00002648,0.00000002,-0.00001288,0.00000007,-0.00000849,0.0
 0000142,0.00000116,-0.00000008,0.00000484,-0.00000145,-0.00000448,-0.0
 0000232,-0.00000111,-0.00000055,0.00000336,-0.00000038,0.00002015,0.00
 000120,0.00000457,-0.00000015,0.00000043,-0.00000334,-0.00000091,0.000
 00078,-0.00000009,-0.00000501,-0.00000110,-0.00000053,-0.00000048,-0.0
 0000013,0.00000059,0.00000124,0.00000066,0.00000011,-0.00000070,-0.000
 00007,-0.00000012,0.00000025,-0.00000011,0.00000003,0.00000033,0.00000
 147,0.00000052,-0.00000027,-0.00000074,-0.00000021,0.00000061,-0.00000
 081,0.,0.00000017,0.00000280,-0.00000340,0.00002429,0.00000169,0.00001
 179,-0.00000834,0.00000117,-0.00000969,-0.00000992,0.00000020,0.000001
 55,-0.00000752,-0.00000273,-0.00000302,-0.00001880,-0.00000175,0.00000
 072,0.00000354,-0.00000313,0.00000157,0.00000645,-0.00000156,0.0000007
 7,0.00000280,-0.00001783,-0.00001271,-0.00002780,0.00001382,0.00000598
 ,-0.00001227,-0.00000876,-0.00000922,-0.00000617,0.00000744,-0.0000035
 0,0.,0.00049246,0.00097600,-0.04493189,-0.00346170,-0.02615591,0.00265
 305,0.00373074,0.02128322,0.00107788,-0.00154335,-0.00180115,0.0429607
 3\\0.00698524,-0.00990644,-0.00137030,0.00695259,0.00996332,-0.0012153
 6,-0.01582852,-0.00006603,0.00271118,0.00114456,0.00679019,-0.00009506
 ,0.00335635,0.00265417,-0.00056818,-0.00600684,0.00337604,0.00109280,0
 .00000155,0.00087633,0.00000904,-0.00598221,-0.00342334,0.00104613,0.0
 0118298,-0.00679865,-0.00020725,0.00337458,-0.00261516,-0.00061005,0.0
 0000933,-0.00087248,-0.00000382,-0.00558514,-0.00590062,0.00096591,-0.
 00564816,0.00587092,0.00105938,0.00866047,0.00001457,-0.00128681,-0.00
 282858,-0.00002564,0.00514621,-0.00427542,0.00001172,-0.00405960,0.017
 77101,0.00004599,-0.00274660,-0.01014814,-0.00006982,0.00757555,-0.012
 72522,0.00000487,-0.00373233,0.01092975,0.00003416,0.00207698,0.000014
 98,-0.00000172,-0.00033715,0.00951622,0.00013325,-0.00615940,0.0001054
 3,-0.00002043,0.00032234,-0.01854029,-0.00011494,0.00348310,0.00033383
 ,0.00000525,-0.00077084,-0.00021140,0.00000062,0.00142879,0.01569915,0
 .00010980,-0.00228753,0.00005463,-0.00004091,-0.00188016,0.00134771,-0
 .00000152,-0.00033171,-0.00244871,-0.00011084,0.00025193,0.00222185,0.
 00369102,-0.00012843,0.00257578,-0.00355238,-0.00028678,-0.00169283,0.
 00276035,0.00065605,0.00122160,0.00005824,-0.00033608,-0.00017194,-0.0
 0289450,0.00039385,-0.00136007,0.00105482,0.00023542,0.00098218,0.0004
 0116,0.00009308,0.00086014,0.00040680,-0.00039433,0.00056250,0.0014773
 4,-0.00009014,0.00222404,0.00136564,-0.00040926,-0.00165563,-0.0002142
 1,-0.00049294,-0.00140464,-0.00023827,0.00102507,-0.00090501,0.0014064
 7,0.00017409,-0.00135506,-0.00105922,0.00023843,0.00086580,-0.00038716
 ,-0.00040148,0.00097938,-0.00038859,0.00007953,0.00057204,-0.00146976,
 -0.00011291,0.00223499,-0.00132244,-0.00042418,-0.00141133,0.00017475,
 0.00101788,-0.00166083,0.00022097,-0.00049752,-0.00089470,-0.00141371,
 0.00015346\\\@


 ORIGINALITY CONSISTS NOT IN SAYING WHAT NO ONE HAS EVER SAID BEFORE, 
 BUT IN SAYING WHAT YOU THINK YOUR SELF.

                                    -- JAMES F. STEPHEN
 Job cpu time:       1 days  6 hours 39 minutes 29.3 seconds.
 Elapsed time:       0 days  0 hours 46 minutes 16.9 seconds.
 File lengths (MBytes):  RWF=   5229 Int=      0 D2E=      0 Chk=     75 Scr=      1
 Normal termination of Gaussian 16 at Fri Jan 16 13:38:00 2026.
