 Entering Gaussian System, Link 0=g16
 Initial command:
 /home/users/ntu/xiaogan4/Softwares/g16/l1.exe "/scratch/users/ntu/xiaogan4/g16scratch/Gau-696217.inp" -scrdir="/scratch/users/ntu/xiaogan4/g16scratch/"
 Entering Link 1 = /home/users/ntu/xiaogan4/Softwares/g16/l1.exe PID=    696218.
  
 Copyright (c) 1988,1990,1992,1993,1995,1998,2003,2009,2016,
            Gaussian, Inc.  All Rights Reserved.
  
 This is part of the Gaussian(R) 16 program.  It is based on
 the Gaussian(R) 09 system (copyright 2009, Gaussian, Inc.),
 the Gaussian(R) 03 system (copyright 2003, Gaussian, Inc.),
 the Gaussian(R) 98 system (copyright 1998, Gaussian, Inc.),
 the Gaussian(R) 94 system (copyright 1995, Gaussian, Inc.),
 the Gaussian 92(TM) system (copyright 1992, Gaussian, Inc.),
 the Gaussian 90(TM) system (copyright 1990, Gaussian, Inc.),
 the Gaussian 88(TM) system (copyright 1988, Gaussian, Inc.),
 the Gaussian 86(TM) system (copyright 1986, Carnegie Mellon
 University), and the Gaussian 82(TM) system (copyright 1983,
 Carnegie Mellon University). Gaussian is a federally registered
 trademark of Gaussian, Inc.
  
 This software contains proprietary and confidential information,
 including trade secrets, belonging to Gaussian, Inc.
  
 This software is provided under written license and may be
 used, copied, transmitted, or stored only in accord with that
 written license.
  
 The following legend is applicable only to US Government
 contracts under FAR:
  
                    RESTRICTED RIGHTS LEGEND
  
 Use, reproduction and disclosure by the US Government is
 subject to restrictions as set forth in subparagraphs (a)
 and (c) of the Commercial Computer Software - Restricted
 Rights clause in FAR 52.227-19.
  
 Gaussian, Inc.
 340 Quinnipiac St., Bldg. 40, Wallingford CT 06492
  
  
 ---------------------------------------------------------------
 Warning -- This program may not be used in any manner that
 competes with the business of Gaussian, Inc. or will provide
 assistance to any competitor of Gaussian, Inc.  The licensee
 of this program is prohibited from giving any competitor of
 Gaussian, Inc. access to this program.  By using this program,
 the user acknowledges that Gaussian, Inc. is engaged in the
 business of creating and licensing software in the field of
 computational chemistry and represents and warrants to the
 licensee that it is not a competitor of Gaussian, Inc. and that
 it will not use this program in any manner prohibited above.
 ---------------------------------------------------------------
  

 Cite this work as:
 Gaussian 16, Revision A.03,
 M. J. Frisch, G. W. Trucks, H. B. Schlegel, G. E. Scuseria, 
 M. A. Robb, J. R. Cheeseman, G. Scalmani, V. Barone, 
 G. A. Petersson, H. Nakatsuji, X. Li, M. Caricato, A. V. Marenich, 
 J. Bloino, B. G. Janesko, R. Gomperts, B. Mennucci, H. P. Hratchian, 
 J. V. Ortiz, A. F. Izmaylov, J. L. Sonnenberg, D. Williams-Young, 
 F. Ding, F. Lipparini, F. Egidi, J. Goings, B. Peng, A. Petrone, 
 T. Henderson, D. Ranasinghe, V. G. Zakrzewski, J. Gao, N. Rega, 
 G. Zheng, W. Liang, M. Hada, M. Ehara, K. Toyota, R. Fukuda, 
 J. Hasegawa, M. Ishida, T. Nakajima, Y. Honda, O. Kitao, H. Nakai, 
 T. Vreven, K. Throssell, J. A. Montgomery, Jr., J. E. Peralta, 
 F. Ogliaro, M. J. Bearpark, J. J. Heyd, E. N. Brothers, K. N. Kudin, 
 V. N. Staroverov, T. A. Keith, R. Kobayashi, J. Normand, 
 K. Raghavachari, A. P. Rendell, J. C. Burant, S. S. Iyengar, 
 J. Tomasi, M. Cossi, J. M. Millam, M. Klene, C. Adamo, R. Cammi, 
 J. W. Ochterski, R. L. Martin, K. Morokuma, O. Farkas, 
 J. B. Foresman, and D. J. Fox, Gaussian, Inc., Wallingford CT, 2016.
 
 ******************************************
 Gaussian 16:  ES64L-G16RevA.03 25-Dec-2016
                19-Jan-2026 
 ******************************************
 %nprocshared=40
 Will use up to   40 processors via shared memory.
 %mem=128GB
 %oldchk=04BDP-NH2_m062x_def2SVP_dmso.chk
 %chk=06BDP-NH2_m062x_def2SVP_dmso.chk
 Copying data from "04BDP-NH2_m062x_def2SVP_dmso.chk" to current chk file "06BDP-NH2_m062x_def2SVP_dmso.chk"
 IOpt=  2 FromEx=T IUOpen= 4 IOptOp= 5 NList=   0 IFRang= 0 IUIn= 4 IUOut= 2.
 ----------------------------------------------------------------------
 # m062x/def2SVP TD=(NStates=5, Root=1, Read) SCRF=(SMD, solvent=Ethano
 l, CorrectedLR) guess=read geom=check
 ----------------------------------------------------------------------
 1/29=2,30=1,38=1,172=1/1;
 2/12=2,40=1/2;
 3/5=43,7=101,11=9,14=-4,25=1,30=1,70=32201,71=1,72=4,74=-55,116=-2/1,2,3,8;
 4/5=1/1;
 5/5=2,38=6,53=4/2;
 8/6=1,10=1,107=1,108=5/1;
 9/8=1,15=1,41=5,42=1,49=3,70=2,73=21/14;
 10/5=4,13=10,28=1,74=10/2;
 6/7=2,8=2,9=2,10=2,22=-1/1;
 99/5=1,9=1/99;
 --------------------------
 Step6 ES cLR m062x/def2SVP
 --------------------------
 Structure from the checkpoint file:  "06BDP-NH2_m062x_def2SVP_dmso.chk"
 Charge =  0 Multiplicity = 1
 Redundant internal coordinates found in file.  (old form).
 C,0,0.3895423281,-1.2422657991,-0.0513138828
 C,0,0.3631176279,1.2318110801,-0.0518800371
 C,0,-0.340011394,-0.0129933155,-0.0520911637
 C,0,-0.0518494268,-2.5821396403,-0.0846524103
 C,0,1.1228792695,-3.3755721561,-0.0633865186
 C,0,2.2209050573,-2.5268565214,-0.0167642189
 H,0,1.1648144187,-4.4638014009,-0.0834362187
 C,0,2.1691795107,2.5522211416,-0.0163846257
 C,0,-0.1041972222,2.5630715016,-0.0851173206
 C,0,1.0548491447,3.3791388637,-0.0629464364
 H,0,1.0752854702,4.4679980155,-0.0826611096
 N,0,1.7731084163,-1.2344260131,-0.0090384988
 N,0,1.7469195547,1.2512188244,-0.0091471962
 B,0,2.6627160844,0.0177130033,0.0723004125
 F,0,3.391701939,0.025197057,1.2800915619
 F,0,3.5945885482,0.0276531991,-0.9830254907
 C,0,-1.7986202455,-0.0297747929,-0.0149492181
 C,0,-2.48671905,-0.0203578004,1.2431328316
 C,0,-2.577771325,-0.020468581,-1.2186071593
 C,0,-3.8471242374,-0.0125466432,1.3066208448
 H,0,-1.8932846129,-0.0204076416,2.1586165393
 C,0,-3.9396214819,-0.0128998205,-1.1817699108
 H,0,-2.0538138043,-0.0206967376,-2.1756042408
 C,0,-4.6161216601,-0.009968904,0.0894204704
 H,0,-4.3781333762,-0.0058610529,2.2593695661
 H,0,-4.5379683882,-0.0067002848,-2.0936767719
 N,0,-5.9288859295,-0.00356326,0.1413432866
 H,0,-6.4871901101,-0.0011928377,-0.7100207325
 H,0,-6.4163797392,-0.0008932545,1.035145462
 C,0,-1.4584353336,-3.0973688812,-0.1533930227
 H,0,-2.0705096933,-2.782072021,0.7067480066
 H,0,-1.9836403674,-2.7635973296,-1.0628980586
 H,0,-1.4533328103,-4.196724991,-0.1651354422
 C,0,3.6756226066,-2.8661965631,0.0140186865
 H,0,4.1946762521,-2.4973920798,-0.8836064285
 H,0,4.1725138209,-2.4112509792,0.8842438342
 H,0,3.8053438312,-3.9546711818,0.0679929548
 C,0,-1.5191767018,3.0542488787,-0.1564424286
 H,0,-2.0340548892,2.7195836868,-1.0714952369
 H,0,-2.1305018783,2.722014447,0.6977484989
 H,0,-1.5322628216,4.1535898849,-0.1593384003
 C,0,3.6166712992,2.921304452,0.0121274385
 H,0,4.1288659642,2.4588873735,0.8692665539
 H,0,4.1376110114,2.5838220732,-0.8967186945
 H,0,3.7235173434,4.0109770018,0.0881019252
 Recover connectivity data from disk.
                           ----------------------------
                           !    Current Parameters    !
                           ! (Angstroms and Degrees)  !
 --------------------------                            --------------------------
 ! Name  Definition              Value                                          !
 --------------------------------------------------------------------------------
 ! R1    R(1,3)                  1.4295                                         !
 ! R2    R(1,4)                  1.4111                                         !
 ! R3    R(1,12)                 1.3842                                         !
 ! R4    R(2,3)                  1.4297                                         !
 ! R5    R(2,9)                  1.4113                                         !
 ! R6    R(2,13)                 1.3846                                         !
 ! R7    R(3,17)                 1.4592                                         !
 ! R8    R(4,5)                  1.4177                                         !
 ! R9    R(4,30)                 1.4996                                         !
 ! R10   R(5,6)                  1.3886                                         !
 ! R11   R(5,7)                  1.0892                                         !
 ! R12   R(6,12)                 1.3678                                         !
 ! R13   R(6,34)                 1.4941                                         !
 ! R14   R(8,10)                 1.3884                                         !
 ! R15   R(8,13)                 1.3678                                         !
 ! R16   R(8,42)                 1.4941                                         !
 ! R17   R(9,10)                 1.4177                                         !
 ! R18   R(9,38)                 1.4995                                         !
 ! R19   R(10,11)                1.0892                                         !
 ! R20   R(12,14)                1.5381                                         !
 ! R21   R(13,14)                1.5385                                         !
 ! R22   R(14,15)                1.4108                                         !
 ! R23   R(14,16)                1.4079                                         !
 ! R24   R(17,18)                1.434                                          !
 ! R25   R(17,19)                1.4339                                         !
 ! R26   R(18,20)                1.3619                                         !
 ! R27   R(18,21)                1.091                                          !
 ! R28   R(19,22)                1.3624                                         !
 ! R29   R(19,23)                1.091                                          !
 ! R30   R(20,24)                1.4398                                         !
 ! R31   R(20,25)                1.0908                                         !
 ! R32   R(22,24)                1.44                                           !
 ! R33   R(22,26)                1.0907                                         !
 ! R34   R(24,27)                1.3138                                         !
 ! R35   R(27,28)                1.0181                                         !
 ! R36   R(27,29)                1.0181                                         !
 ! R37   R(30,31)                1.1018                                         !
 ! R38   R(30,32)                1.102                                          !
 ! R39   R(30,33)                1.0994                                         !
 ! R40   R(34,35)                1.1005                                         !
 ! R41   R(34,36)                1.1005                                         !
 ! R42   R(34,37)                1.0975                                         !
 ! R43   R(38,39)                1.102                                          !
 ! R44   R(38,40)                1.1017                                         !
 ! R45   R(38,41)                1.0994                                         !
 ! R46   R(42,43)                1.1004                                         !
 ! R47   R(42,44)                1.1006                                         !
 ! R48   R(42,45)                1.0975                                         !
 ! A1    A(3,1,4)              131.0633                                         !
 ! A2    A(3,1,12)             120.3492                                         !
 ! A3    A(4,1,12)             108.5872                                         !
 ! A4    A(3,2,9)              131.1831                                         !
 ! A5    A(3,2,13)             120.2479                                         !
 ! A6    A(9,2,13)             108.5686                                         !
 ! A7    A(1,3,2)              119.8516                                         !
 ! A8    A(1,3,17)             120.0176                                         !
 ! A9    A(2,3,17)             120.1081                                         !
 ! A10   A(1,4,5)              105.775                                          !
 ! A11   A(1,4,30)             128.3698                                         !
 ! A12   A(5,4,30)             125.847                                          !
 ! A13   A(4,5,6)              108.2797                                         !
 ! A14   A(4,5,7)              126.2112                                         !
 ! A15   A(6,5,7)              125.5088                                         !
 ! A16   A(5,6,12)             108.5924                                         !
 ! A17   A(5,6,34)             129.1823                                         !
 ! A18   A(12,6,34)            122.2244                                         !
 ! A19   A(10,8,13)            108.5962                                         !
 ! A20   A(10,8,42)            129.1298                                         !
 ! A21   A(13,8,42)            122.2722                                         !
 ! A22   A(2,9,10)             105.7777                                         !
 ! A23   A(2,9,38)             128.5038                                         !
 ! A24   A(10,9,38)            125.7088                                         !
 ! A25   A(8,10,9)             108.2917                                         !
 ! A26   A(8,10,11)            125.516                                          !
 ! A27   A(9,10,11)            126.1919                                         !
 ! A28   A(1,12,6)             108.7655                                         !
 ! A29   A(1,12,14)            125.7545                                         !
 ! A30   A(6,12,14)            125.4605                                         !
 ! A31   A(2,13,8)             108.7657                                         !
 ! A32   A(2,13,14)            125.8258                                         !
 ! A33   A(8,13,14)            125.3889                                         !
 ! A34   A(12,14,13)           107.7952                                         !
 ! A35   A(12,14,15)           110.3927                                         !
 ! A36   A(12,14,16)           110.4214                                         !
 ! A37   A(13,14,15)           110.4058                                         !
 ! A38   A(13,14,16)           110.4051                                         !
 ! A39   A(15,14,16)           107.438                                          !
 ! A40   A(3,17,18)            120.1269                                         !
 ! A41   A(3,17,19)            121.449                                          !
 ! A42   A(18,17,19)           118.404                                          !
 ! A43   A(17,18,20)           121.3493                                         !
 ! A44   A(17,18,21)           118.3711                                         !
 ! A45   A(20,18,21)           120.2796                                         !
 ! A46   A(17,19,22)           121.3675                                         !
 ! A47   A(17,19,23)           118.3827                                         !
 ! A48   A(22,19,23)           120.2498                                         !
 ! A49   A(18,20,24)           119.6118                                         !
 ! A50   A(18,20,25)           121.8059                                         !
 ! A51   A(24,20,25)           118.5821                                         !
 ! A52   A(19,22,24)           119.5706                                         !
 ! A53   A(19,22,26)           121.7224                                         !
 ! A54   A(24,22,26)           118.7069                                         !
 ! A55   A(20,24,22)           119.695                                          !
 ! A56   A(20,24,27)           120.0188                                         !
 ! A57   A(22,24,27)           120.2861                                         !
 ! A58   A(24,27,28)           120.9912                                         !
 ! A59   A(24,27,29)           120.8741                                         !
 ! A60   A(28,27,29)           118.1348                                         !
 ! A61   A(4,30,31)            112.7669                                         !
 ! A62   A(4,30,32)            112.3836                                         !
 ! A63   A(4,30,33)            109.8586                                         !
 ! A64   A(31,30,32)           107.0303                                         !
 ! A65   A(31,30,33)           107.2818                                         !
 ! A66   A(32,30,33)           107.2325                                         !
 ! A67   A(6,34,35)            111.4873                                         !
 ! A68   A(6,34,36)            111.2234                                         !
 ! A69   A(6,34,37)            109.959                                          !
 ! A70   A(35,34,36)           107.0656                                         !
 ! A71   A(35,34,37)           108.4649                                         !
 ! A72   A(36,34,37)           108.5259                                         !
 ! A73   A(9,38,39)            112.3896                                         !
 ! A74   A(9,38,40)            112.8273                                         !
 ! A75   A(9,38,41)            109.8094                                         !
 ! A76   A(39,38,40)           107.0356                                         !
 ! A77   A(39,38,41)           107.2125                                         !
 ! A78   A(40,38,41)           107.2763                                         !
 ! A79   A(8,42,43)            111.2236                                         !
 ! A80   A(8,42,44)            111.5347                                         !
 ! A81   A(8,42,45)            109.9317                                         !
 ! A82   A(43,42,44)           107.1012                                         !
 ! A83   A(43,42,45)           108.5412                                         !
 ! A84   A(44,42,45)           108.3928                                         !
 ! D1    D(4,1,3,2)           -178.2048                                         !
 ! D2    D(4,1,3,17)             3.5254                                         !
 ! D3    D(12,1,3,2)             1.9823                                         !
 ! D4    D(12,1,3,17)         -176.2875                                         !
 ! D5    D(3,1,4,5)           -179.9452                                         !
 ! D6    D(3,1,4,30)             1.0584                                         !
 ! D7    D(12,1,4,5)            -0.1155                                         !
 ! D8    D(12,1,4,30)         -179.1119                                         !
 ! D9    D(3,1,12,6)           179.9478                                         !
 ! D10   D(3,1,12,14)            1.4866                                         !
 ! D11   D(4,1,12,6)             0.0967                                         !
 ! D12   D(4,1,12,14)         -178.3646                                         !
 ! D13   D(9,2,3,1)            178.2402                                         !
 ! D14   D(9,2,3,17)            -3.4916                                         !
 ! D15   D(13,2,3,1)            -2.0017                                         !
 ! D16   D(13,2,3,17)          176.2665                                         !
 ! D17   D(3,2,9,10)           179.8794                                         !
 ! D18   D(3,2,9,38)            -1.2182                                         !
 ! D19   D(13,2,9,10)            0.0998                                         !
 ! D20   D(13,2,9,38)          179.0022                                         !
 ! D21   D(3,2,13,8)          -179.8996                                         !
 ! D22   D(3,2,13,14)           -1.4446                                         !
 ! D23   D(9,2,13,8)            -0.0916                                         !
 ! D24   D(9,2,13,14)          178.3634                                         !
 ! D25   D(1,3,17,18)           89.9218         Frozen                          !
 ! D26   D(1,3,17,19)          -91.7347                                         !
 ! D27   D(2,3,17,18)          -88.3435                                         !
 ! D28   D(2,3,17,19)           90.0            Frozen                          !
 ! D29   D(1,4,5,6)              0.0927                                         !
 ! D30   D(1,4,5,7)           -179.7129                                         !
 ! D31   D(30,4,5,6)           179.122                                          !
 ! D32   D(30,4,5,7)            -0.6835                                         !
 ! D33   D(1,4,30,31)          -60.4431                                         !
 ! D34   D(1,4,30,32)           60.6443                                         !
 ! D35   D(1,4,30,33)          179.945                                          !
 ! D36   D(5,4,30,31)          120.7484                                         !
 ! D37   D(5,4,30,32)         -118.1642                                         !
 ! D38   D(5,4,30,33)            1.1365                                         !
 ! D39   D(4,5,6,12)            -0.0361                                         !
 ! D40   D(4,5,6,34)          -179.6851                                         !
 ! D41   D(7,5,6,12)           179.7712                                         !
 ! D42   D(7,5,6,34)             0.1221                                         !
 ! D43   D(5,6,12,1)            -0.0373                                         !
 ! D44   D(5,6,12,14)          178.4296                                         !
 ! D45   D(34,6,12,1)          179.6412                                         !
 ! D46   D(34,6,12,14)          -1.8919                                         !
 ! D47   D(5,6,34,35)          116.2468                                         !
 ! D48   D(5,6,34,36)         -124.3333                                         !
 ! D49   D(5,6,34,37)           -4.0906                                         !
 ! D50   D(12,6,34,35)         -63.36                                           !
 ! D51   D(12,6,34,36)          56.0599                                         !
 ! D52   D(12,6,34,37)         176.3025                                         !
 ! D53   D(13,8,10,9)            0.0181                                         !
 ! D54   D(13,8,10,11)        -179.7705                                         !
 ! D55   D(42,8,10,9)          179.5375                                         !
 ! D56   D(42,8,10,11)          -0.2511                                         !
 ! D57   D(10,8,13,2)            0.0453                                         !
 ! D58   D(10,8,13,14)        -178.4181                                         !
 ! D59   D(42,8,13,2)         -179.5138                                         !
 ! D60   D(42,8,13,14)           2.0228                                         !
 ! D61   D(10,8,42,43)         125.6578                                         !
 ! D62   D(10,8,42,44)        -114.8454                                         !
 ! D63   D(10,8,42,45)           5.4139                                         !
 ! D64   D(13,8,42,43)         -54.8809                                         !
 ! D65   D(13,8,42,44)          64.6159                                         !
 ! D66   D(13,8,42,45)        -175.1248                                         !
 ! D67   D(2,9,10,8)            -0.0722                                         !
 ! D68   D(2,9,10,11)          179.7146                                         !
 ! D69   D(38,9,10,8)         -179.0144                                         !
 ! D70   D(38,9,10,11)           0.7724                                         !
 ! D71   D(2,9,38,39)          -61.1318                                         !
 ! D72   D(2,9,38,40)           60.0115                                         !
 ! D73   D(2,9,38,41)          179.6221                                         !
 ! D74   D(10,9,38,39)         117.5674                                         !
 ! D75   D(10,9,38,40)        -121.2893                                         !
 ! D76   D(10,9,38,41)          -1.6787                                         !
 ! D77   D(1,12,14,13)          -4.1931                                         !
 ! D78   D(1,12,14,15)         116.4703                                         !
 ! D79   D(1,12,14,16)        -124.8727                                         !
 ! D80   D(6,12,14,13)         177.5958                                         !
 ! D81   D(6,12,14,15)         -61.7408                                         !
 ! D82   D(6,12,14,16)          56.9161                                         !
 ! D83   D(2,13,14,12)           4.1741                                         !
 ! D84   D(2,13,14,15)        -116.4812                                         !
 ! D85   D(2,13,14,16)         124.8639                                         !
 ! D86   D(8,13,14,12)        -177.6205                                         !
 ! D87   D(8,13,14,15)          61.7243                                         !
 ! D88   D(8,13,14,16)         -56.9306                                         !
 ! D89   D(3,17,18,20)         178.8642                                         !
 ! D90   D(3,17,18,21)          -1.1864                                         !
 ! D91   D(19,17,18,20)          0.4707                                         !
 ! D92   D(19,17,18,21)       -179.5799                                         !
 ! D93   D(3,17,19,22)        -178.854                                          !
 ! D94   D(3,17,19,23)           1.2144                                         !
 ! D95   D(18,17,19,22)         -0.4828                                         !
 ! D96   D(18,17,19,23)        179.5857                                         !
 ! D97   D(17,18,20,24)         -0.1716                                         !
 ! D98   D(17,18,20,25)        179.969                                          !
 ! D99   D(21,18,20,24)        179.8799                                         !
 ! D100  D(21,18,20,25)          0.0206                                         !
 ! D101  D(17,19,22,24)          0.1949                                         !
 ! D102  D(17,19,22,26)       -179.9446                                         !
 ! D103  D(23,19,22,24)       -179.8748                                         !
 ! D104  D(23,19,22,26)         -0.0143                                         !
 ! D105  D(18,20,24,22)         -0.1269                                         !
 ! D106  D(18,20,24,27)        179.9437                                         !
 ! D107  D(25,20,24,22)        179.7369                                         !
 ! D108  D(25,20,24,27)         -0.1925                                         !
 ! D109  D(19,22,24,20)          0.1152                                         !
 ! D110  D(19,22,24,27)       -179.9556                                         !
 ! D111  D(26,22,24,20)       -179.7494                                         !
 ! D112  D(26,22,24,27)          0.1798                                         !
 ! D113  D(20,24,27,28)        179.9692                                         !
 ! D114  D(20,24,27,29)         -0.0349                                         !
 ! D115  D(22,24,27,28)          0.0403                                         !
 ! D116  D(22,24,27,29)       -179.9639                                         !
 --------------------------------------------------------------------------------
                          Input orientation:                          
 ---------------------------------------------------------------------
 Center     Atomic      Atomic             Coordinates (Angstroms)
 Number     Number       Type             X           Y           Z
 ---------------------------------------------------------------------
      1          6           0        0.389542   -1.242266   -0.051314
      2          6           0        0.363118    1.231811   -0.051880
      3          6           0       -0.340011   -0.012993   -0.052091
      4          6           0       -0.051849   -2.582140   -0.084652
      5          6           0        1.122879   -3.375572   -0.063387
      6          6           0        2.220905   -2.526857   -0.016764
      7          1           0        1.164814   -4.463801   -0.083436
      8          6           0        2.169180    2.552221   -0.016385
      9          6           0       -0.104197    2.563072   -0.085117
     10          6           0        1.054849    3.379139   -0.062946
     11          1           0        1.075285    4.467998   -0.082661
     12          7           0        1.773108   -1.234426   -0.009038
     13          7           0        1.746920    1.251219   -0.009147
     14          5           0        2.662716    0.017713    0.072300
     15          9           0        3.391702    0.025197    1.280092
     16          9           0        3.594589    0.027653   -0.983025
     17          6           0       -1.798620   -0.029775   -0.014949
     18          6           0       -2.486719   -0.020358    1.243133
     19          6           0       -2.577771   -0.020469   -1.218607
     20          6           0       -3.847124   -0.012547    1.306621
     21          1           0       -1.893285   -0.020408    2.158617
     22          6           0       -3.939621   -0.012900   -1.181770
     23          1           0       -2.053814   -0.020697   -2.175604
     24          6           0       -4.616122   -0.009969    0.089420
     25          1           0       -4.378133   -0.005861    2.259370
     26          1           0       -4.537968   -0.006700   -2.093677
     27          7           0       -5.928886   -0.003563    0.141343
     28          1           0       -6.487190   -0.001193   -0.710021
     29          1           0       -6.416380   -0.000893    1.035145
     30          6           0       -1.458435   -3.097369   -0.153393
     31          1           0       -2.070510   -2.782072    0.706748
     32          1           0       -1.983640   -2.763597   -1.062898
     33          1           0       -1.453333   -4.196725   -0.165135
     34          6           0        3.675623   -2.866197    0.014019
     35          1           0        4.194676   -2.497392   -0.883606
     36          1           0        4.172514   -2.411251    0.884244
     37          1           0        3.805344   -3.954671    0.067993
     38          6           0       -1.519177    3.054249   -0.156442
     39          1           0       -2.034055    2.719584   -1.071495
     40          1           0       -2.130502    2.722014    0.697748
     41          1           0       -1.532263    4.153590   -0.159338
     42          6           0        3.616671    2.921304    0.012127
     43          1           0        4.128866    2.458887    0.869267
     44          1           0        4.137611    2.583822   -0.896719
     45          1           0        3.723517    4.010977    0.088102
 ---------------------------------------------------------------------
                    Distance matrix (angstroms):
                    1          2          3          4          5
     1  C    0.000000
     2  C    2.474218   0.000000
     3  C    1.429461   1.429660   0.000000
     4  C    1.411099   3.836599   2.585461   0.000000
     5  C    2.255865   4.669620   3.667031   1.417736   0.000000
     6  C    2.237243   4.192874   3.588739   2.274440   1.388579
     7  H    3.313664   5.751844   4.698423   2.240742   1.089221
     8  C    4.191236   2.237544   3.588543   5.594577   6.019609
     9  C    3.837384   1.411291   2.587046   5.145477   6.064130
    10  C    4.669063   2.256021   3.667740   6.063175   6.755054
    11  H    5.751377   3.313765   4.699285   7.139669   7.843738
    12  N    1.384234   2.841168   2.441112   2.269916   2.238361
    13  N    2.839316   1.384598   2.440360   4.235081   4.669000
    14  B    2.601950   2.603384   3.005460   3.762012   3.728792
    15  F    3.520236   3.521703   3.962556   4.529766   4.303222
    16  F    3.571149   3.572035   4.043435   4.573249   4.305465
    17  C    2.501902   2.503213   1.459178   3.093644   4.442056
    18  C    3.382533   3.371432   2.507192   3.775491   5.098397
    19  C    3.414720   3.402688   2.523566   3.772041   5.126994
    20  C    4.615792   4.595660   3.761109   4.789839   6.155306
    21  H    3.404119   3.397896   2.701840   3.871125   5.029083
    22  C    4.640143   4.619472   3.772713   4.787424   6.179584
    23  H    3.460467   3.452613   2.728825   3.865350   5.080161
    24  C    5.157037   5.133693   4.278452   5.242036   6.654830
    25  H    5.440467   5.417856   4.652884   5.554132   6.856478
    26  H    5.475238   5.451925   4.668078   5.549264   6.893227
    27  N    6.441586   6.415044   5.592229   6.421813   7.819191
    28  H    7.018804   6.991435   6.182299   6.961751   8.349714
    29  H    7.002998   6.975870   6.172883   6.958737   8.332806
    30  C    2.620467   4.697889   3.282454   1.499557   2.597823
    31  H    2.999586   4.754925   3.352351   2.177447   3.338126
    32  H    2.994954   4.742649   3.359921   2.172949   3.320241
    33  H    3.483959   5.725498   4.330805   2.139514   2.705830
    34  C    3.666026   5.269791   4.926505   3.739582   2.604218
    35  H    4.092322   5.411060   5.237084   4.321862   3.298469
    36  H    4.068497   5.353478   5.195310   4.337419   3.335894
    37  H    4.363379   6.225985   5.721470   4.096960   2.747405
    38  C    4.702584   2.622069   3.287749   5.824696   6.952102
    39  H    4.755086   2.999920   3.372824   5.745543   6.937827
    40  H    4.756809   3.000131   3.353861   5.750391   6.953012
    41  H    5.728897   3.484366   4.335133   6.896902   7.984189
    42  C    5.268178   3.666619   4.926415   6.614779   6.773135
    43  H    5.341212   4.066336   5.189408   6.618179   6.629232
    44  H    5.422331   4.097376   5.244611   6.700611   6.730337
    45  H    6.223455   4.362986   5.720512   7.599502   7.832457
                    6          7          8          9         10
     6  C    0.000000
     7  H    2.207154   0.000000
     8  C    5.079341   7.087864   0.000000
     9  C    5.596261   7.140542   2.274441   0.000000
    10  C    6.020183   7.843738   1.388414   1.417690   0.000000
    11  H    7.088355   8.932248   2.207079   2.240520   1.089229
    12  N    1.367830   3.287008   3.807312   4.236868   4.669452
    13  N    3.807699   5.745069   1.367831   2.270102   2.238280
    14  B    2.584176   4.727783   2.583636   3.762903   3.728634
    15  F    3.092827   5.193202   3.092129   4.530553   4.302738
    16  F    3.057153   5.185193   3.056081   4.573358   4.304565
    17  C    4.732019   5.333594   4.733935   3.098200   4.445816
    18  C    5.480110   5.902345   5.466437   3.756962   5.079875
    19  C    5.545602   5.919355   5.531511   3.752072   5.107721
    20  C    6.700305   6.845835   6.672652   4.751868   6.116256
    21  H    5.285936   5.841448   5.277562   3.861287   5.018341
    22  C    6.754947   6.860913   6.727215   4.748553   6.140230
    23  H    5.405058   5.871790   5.395907   3.853180   5.068135
    24  C    7.286353   7.299707   7.253711   5.196967   6.608266
    25  H    7.421827   7.489075   7.388515   5.510224   6.809455
    26  H    7.506472   7.511894   7.473222   5.504213   6.845975
    27  N    8.532942   8.382412   8.493267   6.369136   7.762536
    28  H    9.093432   8.880352   9.051729   6.907138   8.290217
    29  H    9.060336   8.868105   9.018644   6.904531   8.273432
    30  C    3.725815   2.958627   6.715373   5.820585   6.947657
    31  H    4.359455   3.730942   6.852194   5.750130   6.951318
    32  H    4.339199   3.709826   6.826348   5.732518   6.925715
    33  H    4.038626   2.633002   7.661135   6.893578   7.980923
    34  C    1.494089   2.977582   5.624015   6.616178   6.773374
    35  H    2.155935   3.699608   5.509383   6.687764   6.713093
    36  H    2.152663   3.767708   5.427756   6.631275   6.644217
    37  H    2.134546   2.693425   6.709978   7.601903   7.833718
    38  C    6.719856   7.983121   3.724999   1.499503   2.596133
    39  H    6.836832   7.925279   4.336871   2.172968   3.315647
    40  H    6.855357   7.943885   4.361889   2.178085   3.340199
    41  H    7.663874   9.029918   4.035529   2.138838   2.702261
    42  C    5.624185   7.782064   1.494078   3.739338   2.603494
    43  H    5.411378   7.590577   2.152547   4.340568   3.341476
    44  H    5.528754   7.692070   2.156550   4.318804   3.291068
    45  H    6.709106   8.854279   2.134210   4.096075   2.746602
                   11         12         13         14         15
    11  H    0.000000
    12  N    5.745434   0.000000
    13  N    3.286969   2.485783   0.000000
    14  B    4.727471   1.538138   1.538458   0.000000
    15  F    5.192433   2.422468   2.422927   1.410757   0.000000
    16  F    5.184034   2.420596   2.420626   1.407905   2.272194
    17  C    5.337966   3.769412   3.769858   4.462442   5.349729
    18  C    5.881407   4.603045   4.594432   5.281002   5.878714
    19  C    5.897587   4.676206   4.667219   5.397278   6.471491
    20  C    6.799669   5.900082   5.884019   6.625895   7.238973
    21  H    5.829367   4.428883   4.423496   5.011119   5.357702
    22  C    6.814380   5.958415   5.942204   6.720453   7.733726
    23  H    5.858332   4.562070   4.555972   5.224960   6.449619
    24  C    7.243888   6.506247   6.487573   7.278911   8.095936
    25  H    7.432382   6.670294   6.651518   7.372746   7.831366
    26  H    7.454913   6.758899   6.739988   7.519435   8.617598
    27  N    8.312849   7.801176   7.779146   8.591906   9.389938
    28  H    8.806718   8.381215   8.358249   9.183309  10.077388
    29  H    8.794631   8.347433   8.324529   9.130027   9.811175
    30  C    7.978692   3.732863   5.404195   5.170934   5.943831
    31  H    7.942462   4.204873   5.599349   5.535770   6.168082
    32  H    7.912892   4.190721   5.580880   5.532901   6.493172
    33  H    9.026524   4.382865   6.320288   5.895738   6.586932
    34  C    7.782128   2.506545   4.546817   3.057174   3.169181
    35  H    7.673902   2.867742   4.561609   3.096193   3.419037
    36  H    7.606037   2.817804   4.482783   2.972980   2.588946
    37  H    8.855353   3.396417   5.598603   4.133455   4.180865
    38  C    2.955565   5.408660   3.733631   5.173113   5.946050
    39  H    3.701722   5.590841   4.192904   5.537872   6.498347
    40  H    3.732904   5.602780   4.206820   5.538896   6.173061
    41  H    2.627554   6.322878   4.381707   5.895505   6.584908
    42  C    2.976556   4.546347   2.507112   3.056877   3.169508
    43  H    3.777174   4.467838   2.811360   2.957040   2.575856
    44  H    3.686549   4.577976   2.877329   3.114358   3.441140
    45  H    2.692798   5.597123   3.395977   4.131792   4.173414
                   16         17         18         19         20
    16  F    0.000000
    17  C    5.479705   0.000000
    18  C    6.476140   1.433994   0.000000
    19  C    6.177041   1.433860   2.463423   0.000000
    20  C    7.786089   2.437871   1.361908   2.826322   0.000000
    21  H    6.323684   2.175646   1.090997   3.445891   2.131536
    22  C    7.536940   2.438369   2.826859   1.362369   2.490109
    23  H    5.773130   2.175692   3.446037   1.091043   3.916876
    24  C    8.280539   2.819503   2.421883   2.421966   1.439771
    25  H    8.606889   3.439038   2.147183   3.916355   1.090755
    26  H    8.208118   3.438847   3.916900   2.146697   3.469773
    27  N    9.589669   4.133305   3.614241   3.616590   2.385725
    28  H   10.085516   4.739898   4.451847   3.942409   3.322186
    29  H   10.212410   4.735740   3.935209   4.451370   2.583584
    30  C    5.998925   3.089503   3.532088   3.443096   4.165766
    31  H    6.545474   2.858306   2.843942   3.404521   3.344619
    32  H    6.238116   2.933635   3.618871   2.811048   4.081112
    33  H    6.632935   4.183928   4.526936   4.451436   5.040204
    34  C    3.061867   6.165506   6.898114   6.980148   8.148979
    35  H    2.597276   6.539366   7.436381   7.218963   8.697247
    36  H    3.125531   6.491103   7.084529   7.463523   8.381335
    37  H    4.124071   6.842229   7.513310   7.607723   8.696828
    38  C    5.999510   3.099889   3.513994   3.420922   4.118875
    39  H    6.239867   2.954774   3.615202   2.797348   4.050579
    40  H    6.546850   2.861892   2.818677   3.375453   3.285627
    41  H    6.632226   4.194322   4.505525   4.431467   4.986413
    42  C    3.060071   6.167251   6.886227   6.967055   8.123512
    43  H    3.102795   6.489250   7.074772   7.448853   8.361560
    44  H    2.614636   6.545781   7.432528   7.209875   8.680543
    45  H    4.126840   6.843413   7.493517   7.593832   8.659570
                   21         22         23         24         25
    21  H    0.000000
    22  C    3.917363   0.000000
    23  H    4.337193   2.131675   0.000000
    24  C    3.419872   1.439995   3.419923   0.000000
    25  H    2.486933   3.468974   5.007162   2.182965   0.000000
    26  H    5.007648   1.090702   2.485545   2.184498   4.355980
    27  N    4.511735   2.389119   4.514944   1.313806   2.625047
    28  H    5.416033   2.590905   4.669383   2.034719   3.642173
    29  H    4.660575   3.324032   5.416760   2.033570   2.377645
    30  C    3.873264   4.089962   3.729574   4.422893   4.889119
    31  H    3.125079   3.837759   3.991670   3.813894   3.929772
    32  H    4.232187   3.377326   2.960835   3.979983   4.937223
    33  H    4.799480   4.971878   4.673518   5.253281   5.656503
    34  C    6.611395   8.219681   6.761491   8.770219   8.836634
    35  H    7.242502   8.510488   6.844480   9.206748   9.464623
    36  H    6.643348   8.707884   7.337886   9.145382   8.988350
    37  H    7.233499   8.779747   7.405377   9.299582   9.346900
    38  C    3.866907   4.039462   3.717276   4.363593   4.834672
    39  H    4.238041   3.333138   2.954418   3.932588   4.900756
    40  H    3.116294   3.779585   3.972971   3.743274   3.864170
    41  H    4.788059   4.919388   4.664977   5.187224   5.590184
    42  C    6.604597   8.193443   6.752477   8.739406   8.805413
    43  H    6.638948   8.684295   7.324282   9.120209   8.965289
    44  H    7.244915   8.489164   6.837602   9.183031   9.443794
    45  H    7.217171   8.748020   7.399751   9.258379   9.299792
                   26         27         28         29         30
    26  H    0.000000
    27  N    2.632485   0.000000
    28  H    2.390397   1.018101   0.000000
    29  H    3.649382   1.018106   1.746602   0.000000
    30  C    4.774982   5.444578   5.931654   5.965065   0.000000
    31  H    4.651174   4.788200   5.408104   5.170047   1.101767
    32  H    3.897124   4.963159   5.295032   5.628810   1.102018
    33  H    5.548924   6.140612   6.575645   6.608897   1.099431
    34  C    8.948865  10.022847  10.583725  10.540454   5.141986
    35  H    9.161162  10.476460  10.971026  11.068361   5.731566
    36  H    9.514325  10.410914  11.044426  10.860813   5.766718
    37  H    9.479987  10.505801  11.053124  11.002335   5.337729
    38  C    4.715442   5.374423   5.858612   5.893757   6.151918
    39  H    3.840190   4.904714   5.231033   5.571687   5.917025
    40  H    4.586266   4.708087   5.327138   5.088891   5.919572
    41  H    5.484883   6.058269   6.489744   6.522355   7.251337
    42  C    8.916601   9.984448  10.542794  10.499901   7.874550
    43  H    9.485366  10.380362  11.011212  10.829600   7.945801
    44  H    9.132863  10.445406  10.936341  11.036284   8.009007
    45  H    9.442141  10.454102  10.999684  10.945753   8.799974
                   31         32         33         34         35
    31  H    0.000000
    32  H    1.771873   0.000000
    33  H    1.772662   1.772303   0.000000
    34  C    5.788349   5.761730   5.301753   0.000000
    35  H    6.470149   6.186647   5.941712   1.100529   0.000000
    36  H    6.256545   6.466355   5.994937   1.100531   1.770086
    37  H    6.025666   6.017467   5.269404   1.097505   1.783475
    38  C    5.925513   5.906329   7.251278   7.878240   7.999850
    39  H    5.782015   5.483420   6.999575   8.060999   8.127068
    40  H    5.504421   5.763105   7.005147   8.087439   8.351692
    41  H    7.010223   6.990539   8.350690   8.742398   8.806700
    42  C    8.084246   8.052160   8.740864   5.787802   5.522563
    43  H    8.119503   8.268636   8.748034   5.412338   5.257528
    44  H    8.360902   8.129713   8.818712   5.544870   5.081551
    45  H    8.949804   8.932598   9.707228   6.877739   6.597354
                   36         37         38         39         40
    36  H    0.000000
    37  H    1.784160   0.000000
    38  C    7.959275   8.804877   0.000000
    39  H    8.286850   8.941068   1.102008   0.000000
    40  H    8.131002   8.955947   1.101699   1.771872   0.000000
    41  H    8.759605   9.710078   1.099423   1.772061   1.772539
    42  C    5.431915   6.878791   5.140333   5.757225   5.791355
    43  H    4.870357   6.471510   5.771215   6.466538   6.267243
    44  H    5.303188   6.617625   5.724383   6.175633   6.469209
    45  H    6.486945   7.966094   5.334883   6.013485   6.025167
                   41         42         43         44         45
    41  H    0.000000
    42  C    5.297117   0.000000
    43  H    5.998202   1.100391   0.000000
    44  H    5.929196   1.100579   1.770421   0.000000
    45  H    5.263534   1.097531   1.784239   1.782727   0.000000
 Stoichiometry    C19H20BF2N3
 Framework group  C1[X(C19H20BF2N3)]
 Deg. of freedom   129
 Full point group                 C1      NOp   1
 Largest Abelian subgroup         C1      NOp   1
 Largest concise Abelian subgroup C1      NOp   1
                         Standard orientation:                         
 ---------------------------------------------------------------------
 Center     Atomic      Atomic             Coordinates (Angstroms)
 Number     Number       Type             X           Y           Z
 ---------------------------------------------------------------------
      1          6           0        0.389423   -1.242321   -0.051390
      2          6           0        0.363253    1.231758   -0.051956
      3          6           0       -0.340004   -0.012974   -0.052167
      4          6           0       -0.052106   -2.582150   -0.084729
      5          6           0        1.122541   -3.375703   -0.063463
      6          6           0        2.220654   -2.527100   -0.016840
      7          1           0        1.164364   -4.463937   -0.083512
      8          6           0        2.169451    2.551983   -0.016461
      9          6           0       -0.103925    2.563067   -0.085194
     10          6           0        1.055205    3.379015   -0.063023
     11          1           0        1.075754    4.467872   -0.082737
     12          7           0        1.772990   -1.234624   -0.009115
     13          7           0        1.747057    1.251024   -0.009223
     14          5           0        2.662727    0.017424    0.072224
     15          9           0        3.391713    0.024833    1.280015
     16          9           0        3.594600    0.027268   -0.983102
     17          6           0       -1.798615   -0.029605   -0.015025
     18          6           0       -2.486712   -0.020117    1.243057
     19          6           0       -2.577765   -0.020219   -1.218683
     20          6           0       -3.847117   -0.012166    1.306545
     21          1           0       -1.893278   -0.020228    2.158540
     22          6           0       -3.939614   -0.012510   -1.181846
     23          1           0       -2.053807   -0.020501   -2.175680
     24          6           0       -4.616114   -0.009510    0.089344
     25          1           0       -4.378125   -0.005426    2.259293
     26          1           0       -4.537960   -0.006249   -2.093753
     27          7           0       -5.928878   -0.002969    0.141267
     28          1           0       -6.487182   -0.000541   -0.710097
     29          1           0       -6.416371   -0.000249    1.035069
     30          6           0       -1.458745   -3.097234   -0.153469
     31          1           0       -2.070787   -2.781874    0.706672
     32          1           0       -1.983916   -2.763409   -1.062974
     33          1           0       -1.453756   -4.196591   -0.165212
     34          6           0        3.675336   -2.866590    0.013942
     35          1           0        4.194428   -2.497839   -0.883683
     36          1           0        4.172274   -2.411696    0.884168
     37          1           0        3.804946   -3.955078    0.067917
     38          6           0       -1.518854    3.054390   -0.156519
     39          1           0       -2.033766    2.719777   -1.071571
     40          1           0       -2.130213    2.722218    0.697672
     41          1           0       -1.531827    4.153732   -0.159415
     42          6           0        3.616980    2.920917    0.012051
     43          1           0        4.129128    2.458447    0.869190
     44          1           0        4.137885    2.583381   -0.896795
     45          1           0        3.723939    4.010578    0.088026
 ---------------------------------------------------------------------
 Rotational constants (GHZ):           0.3584742           0.1767433           0.1274292
 Standard basis: def2SVP (5D, 7F)
 There are   475 symmetry adapted cartesian basis functions of A   symmetry.
 There are   450 symmetry adapted basis functions of A   symmetry.
   450 basis functions,   765 primitive gaussians,   475 cartesian basis functions
    89 alpha electrons       89 beta electrons
       nuclear repulsion energy      2219.5401836579 Hartrees.
 NAtoms=   45 NActive=   45 NUniq=   45 SFac= 1.00D+00 NAtFMM=   60 NAOKFM=F Big=F
 Integral buffers will be    131072 words long.
 Regular integral format.
 Two-electron integral symmetry is turned on.
 ------------------------------------------------------------------------------
 Polarizable Continuum Model (PCM)
 =================================
 Model                : PCM.
 Atomic radii         : SMD-Coulomb.
 Polarization charges : Total charges.
 Charge compensation  : None.
 Solution method      : On-the-fly selection.
 Cavity type          : VdW (van der Waals Surface) (Alpha=1.000).
 Cavity algorithm     : GePol (No added spheres)
                        Default sphere list used, NSphG=   45.
                        Lebedev-Laikov grids with approx.  5.0 points / Ang**2.
                        Smoothing algorithm: York/Karplus (Gamma=1.0000).
                        Polarization charges: spherical gaussians, with
                                              point-specific exponents (IZeta= 3).
                        Self-potential: point-specific (ISelfS= 7).
                        Self-field    : sphere-specific E.n sum rule (ISelfD= 2).
 1st derivatives      : Analytical E(r).r(x)/FMM algorithm (CHGder, D1EAlg=3).
                        Cavity 1st derivative terms included.
 Solvent              : Ethanol, Eps=  24.852000 Eps(inf)=   1.852593
 ------------------------------------------------------------------------------
 ------------------------------------------------------------------------------
 Atomic radii for non-electrostatic terms: SMD-CDS.
 ------------------------------------------------------------------------------
 Nuclear repulsion after PCM non-electrostatic terms =     2219.5377329539 Hartrees.
 One-electron integrals computed using PRISM.
   1 Symmetry operations used in ECPInt.
 ECPInt:  NShTT=   22155 NPrTT=   80585 LenC2=   19750 LenP2D=   49267.
 LDataN:  DoStor=T MaxTD1= 4 Len=   56
 NBasis=   450 RedAO= T EigKep=  2.70D-04  NBF=   450
 NBsUse=   450 1.00D-06 EigRej= -1.00D+00 NBFU=   450
 Initial guess from the checkpoint file:  "06BDP-NH2_m062x_def2SVP_dmso.chk"
 B after Tr=    -0.000000    0.000000    0.000000
         Rot=    1.000000   -0.000000   -0.000000   -0.000000 Ang=   0.00 deg.
 Requested convergence on RMS density matrix=1.00D-08 within 128 cycles.
 Requested convergence on MAX density matrix=1.00D-06.
 Requested convergence on             energy=1.00D-06.
 No special actions if energy rises.
 Inv3:  Mode=1 IEnd=    31473363.
 Iteration    1 A*A^-1 deviation from unit magnitude is 1.04D-14 for    142.
 Iteration    1 A*A^-1 deviation from orthogonality  is 4.20D-15 for   2488    709.
 Iteration    1 A^-1*A deviation from unit magnitude is 1.02D-14 for    142.
 Iteration    1 A^-1*A deviation from orthogonality  is 5.89D-15 for   2425   2389.
 Error on total polarization charges =  0.04816
 SCF Done:  E(RM062X) =  -1123.81498407     A.U. after    1 cycles
            NFock=  1  Conv=0.25D-08     -V/T= 2.0103
 SMD-CDS (non-electrostatic) energy       (kcal/mol) =      -1.54
 (included in total energy above)
 DoSCS=F DFT=T ScalE2(SS,OS)=  1.000000  1.000000
 ExpMin= 8.36D-02 ExpMax= 2.89D+03 ExpMxC= 4.35D+02 IAcc=3 IRadAn=         5 AccDes= 0.00D+00
 HarFok:  IExCor=  205 AccDes= 0.00D+00 IRadAn=         5 IDoV=-2 UseB2=F ITyADJ=14
 ICtDFT= 12500011 ScaDFX=  1.000000  1.000000  1.000000  1.000000
 GSVD:  LWork=        -825 too small for GESVD, short by        3500 words or        3500 for optimal perf.
 Range of M.O.s used for correlation:    26   450
 NBasis=   450 NAE=    89 NBE=    89 NFC=    25 NFV=     0
 NROrb=    425 NOA=    64 NOB=    64 NVA=   361 NVB=   361

 **** Warning!!: The largest alpha MO coefficient is  0.13075014D+02

 NEqPCM:  Using non-equilibrium solvation (IEInf=1, Eps=  24.8520, EpsInf=   1.8526)
 Inv3:  Mode=1 IEnd=    31473363.
 Iteration    1 A*A^-1 deviation from unit magnitude is 1.17D-14 for    136.
 Iteration    1 A*A^-1 deviation from orthogonality  is 4.96D-15 for   2939    549.
 Iteration    1 A^-1*A deviation from unit magnitude is 1.25D-14 for    136.
 Iteration    1 A^-1*A deviation from orthogonality  is 6.84D-15 for   2671    309.
 Orbital symmetries:
       Occupied  (A) (A) (A) (A) (A) (A) (A) (A) (A) (A) (A) (A)
                 (A) (A) (A) (A) (A) (A) (A) (A) (A) (A) (A) (A)
                 (A) (A) (A) (A) (A) (A) (A) (A) (A) (A) (A) (A)
                 (A) (A) (A) (A) (A) (A) (A) (A) (A) (A) (A) (A)
                 (A) (A) (A) (A) (A) (A) (A) (A) (A) (A) (A) (A)
                 (A) (A) (A) (A) (A) (A) (A) (A) (A) (A) (A) (A)
                 (A) (A) (A) (A) (A) (A) (A) (A) (A) (A) (A) (A)
                 (A) (A) (A) (A) (A)
       Virtual   (A) (A) (A) (A) (A) (A) (A) (A) (A) (A) (A) (A)
                 (A) (A) (A) (A) (A) (A) (A) (A) (A) (A) (A) (A)
                 (A) (A) (A) (A) (A) (A) (A) (A) (A) (A) (A) (A)
                 (A) (A) (A) (A) (A) (A) (A) (A) (A) (A) (A) (A)
                 (A) (A) (A) (A) (A) (A) (A) (A) (A) (A) (A) (A)
                 (A) (A) (A) (A) (A) (A) (A) (A) (A) (A) (A) (A)
                 (A) (A) (A) (A) (A) (A) (A) (A) (A) (A) (A) (A)
                 (A) (A) (A) (A) (A) (A) (A) (A) (A) (A) (A) (A)
                 (A) (A) (A) (A) (A) (A) (A) (A) (A) (A) (A) (A)
                 (A) (A) (A) (A) (A) (A) (A) (A) (A) (A) (A) (A)
                 (A) (A) (A) (A) (A) (A) (A) (A) (A) (A) (A) (A)
                 (A) (A) (A) (A) (A) (A) (A) (A) (A) (A) (A) (A)
                 (A) (A) (A) (A) (A) (A) (A) (A) (A) (A) (A) (A)
                 (A) (A) (A) (A) (A) (A) (A) (A) (A) (A) (A) (A)
                 (A) (A) (A) (A) (A) (A) (A) (A) (A) (A) (A) (A)
                 (A) (A) (A) (A) (A) (A) (A) (A) (A) (A) (A) (A)
                 (A) (A) (A) (A) (A) (A) (A) (A) (A) (A) (A) (A)
                 (A) (A) (A) (A) (A) (A) (A) (A) (A) (A) (A) (A)
                 (A) (A) (A) (A) (A) (A) (A) (A) (A) (A) (A) (A)
                 (A) (A) (A) (A) (A) (A) (A) (A) (A) (A) (A) (A)
                 (A) (A) (A) (A) (A) (A) (A) (A) (A) (A) (A) (A)
                 (A) (A) (A) (A) (A) (A) (A) (A) (A) (A) (A) (A)
                 (A) (A) (A) (A) (A) (A) (A) (A) (A) (A) (A) (A)
                 (A) (A) (A) (A) (A) (A) (A) (A) (A) (A) (A) (A)
                 (A) (A) (A) (A) (A) (A) (A) (A) (A) (A) (A) (A)
                 (A) (A) (A) (A) (A) (A) (A) (A) (A) (A) (A) (A)
                 (A) (A) (A) (A) (A) (A) (A) (A) (A) (A) (A) (A)
                 (A) (A) (A) (A) (A) (A) (A) (A) (A) (A) (A) (A)
                 (A) (A) (A) (A) (A) (A) (A) (A) (A) (A) (A) (A)
                 (A) (A) (A) (A) (A) (A) (A) (A) (A) (A) (A) (A)
                 (A)
 Generating guess from checkpoint file densities.
 Convergence on wavefunction:    0.000001000000000
 Iteration     1 Dimension    10 NMult     0 NNew     10
 CISAX will form    10 AO SS matrices at one time.
 Iteration     2 Dimension    20 NMult    10 NNew     10
 Iteration     3 Dimension    30 NMult    20 NNew     10
 Iteration     4 Dimension    40 NMult    30 NNew     10
 Iteration     5 Dimension    50 NMult    40 NNew     10
 Iteration     6 Dimension    60 NMult    50 NNew     10
 Iteration     7 Dimension    70 NMult    60 NNew     10
 No map to state      5
 Iteration     8 Dimension    78 NMult    70 NNew      8
 Iteration     9 Dimension    86 NMult    78 NNew      8
 Iteration    10 Dimension    92 NMult    86 NNew      6
 Iteration    11 Dimension    96 NMult    92 NNew      4
 Iteration    12 Dimension    98 NMult    96 NNew      2
 Iteration    13 Dimension   100 NMult    98 NNew      2
 Iteration    14 Dimension   102 NMult   100 NNew      2
 Iteration    15 Dimension   104 NMult   102 NNew      2
 Iteration    16 Dimension   106 NMult   104 NNew      2
 PCM Corrected Linear-Response:
 The state of interest is root number   1
 Excitation energy =    2.3040 eV, Total energy =  -1123.73031491    
 Recompute the excitation energies using the linear response reaction field.
 Convergence on wavefunction:    0.000001000000000
 Iteration     1 Dimension    10 NMult     0 NNew     10
 Iteration     2 Dimension    20 NMult    10 NNew     10
 Iteration     3 Dimension    30 NMult    20 NNew     10
 Iteration     4 Dimension    40 NMult    30 NNew     10
 Iteration     5 Dimension    50 NMult    40 NNew     10
 Iteration     6 Dimension    60 NMult    50 NNew     10
 Iteration     7 Dimension    68 NMult    60 NNew      8
 Iteration     8 Dimension    76 NMult    68 NNew      8
 Iteration     9 Dimension    80 NMult    76 NNew      4
 Iteration    10 Dimension    84 NMult    80 NNew      4
 Iteration    11 Dimension    86 NMult    84 NNew      2
 Iteration    12 Dimension    88 NMult    86 NNew      2
 Iteration    13 Dimension    90 NMult    88 NNew      2
 Iteration    14 Dimension    92 NMult    90 NNew      2
 Iteration    15 Dimension    94 NMult    92 NNew      2
 ***********************************************************************
 Excited states from <AA,BB:AA,BB> singles matrix:
 ***********************************************************************
 
 Ground to excited state transition densities written to RWF  633
 Ground to excited state transition electric dipole moments (Au):
       state          X           Y           Z        Dip. S.      Osc.
         1         0.0014      0.1345      0.0017      0.0181      0.0010
         2        -0.0297      3.0422     -0.0015      9.2560      0.6508
         3        -0.0076      0.6177     -0.0007      0.3817      0.0341
         4        -0.6626     -0.0088     -0.0376      0.4405      0.0428
         5        -0.0569     -0.1433     -0.0148      0.0240      0.0027
 Ground to excited state transition velocity dipole moments (Au):
       state          X           Y           Z        Dip. S.      Osc.
         1        -0.0001     -0.0117     -0.0001      0.0001      0.0011
         2         0.0030     -0.3224      0.0002      0.1039      0.6570
         3         0.0010     -0.0870      0.0001      0.0076      0.0377
         4         0.0986      0.0014      0.0056      0.0098      0.0447
         5         0.0095      0.0281      0.0028      0.0009      0.0035
 Ground to excited state transition magnetic dipole moments (Au):
       state          X           Y           Z
         1         0.1552     -0.0018     -0.0041
         2        -0.0498     -0.0010      0.6253
         3         0.0510      0.0003     -1.6090
         4         0.0010     -0.0267      0.0023
         5         0.0089      0.0027     -0.1106
 Ground to excited state transition velocity quadrupole moments (Au):
       state          XX          YY          ZZ          XY          XZ          YZ
         1         0.0025     -0.0011      0.0000     -0.0320      0.0012      0.0064
         2         0.0183     -0.0055     -0.0002     -0.8371      0.0005      0.0384
         3        -0.0073      0.0114     -0.0004      0.4068     -0.0005      0.0297
         4         0.3621     -0.3850     -0.0029      0.0023     -0.0105      0.0005
         5        -0.0280      0.0322     -0.0039      0.0022     -0.0216      0.0006
 <0|del|b> * <b|rxdel|0> + <0|del|b> * <b|delr+rdel|0>
 Rotatory Strengths (R) in cgs (10**-40 erg-esu-cm/Gauss)
       state          XX          YY          ZZ    R(velocity)    E-M Angle
         1         0.1631     -0.0959     -0.0462      0.0070       90.00
         2         1.4659      0.7471     -0.4070      0.6020       89.92
         3        -0.4412     -0.2038      0.0944     -0.1835       90.04
         4         0.0092      0.3749     -0.0016      0.1275       90.00
         5         0.7935     -0.4680     -0.9480     -0.2075       92.58
 1/2[<0|r|b>*<b|rxdel|0> + (<0|rxdel|b>*<b|r|0>)*]
 Rotatory Strengths (R) in cgs (10**-40 erg-esu-cm/Gauss)
       state          XX          YY          ZZ     R(length)
         1        -0.1564      0.1676      0.0049      0.0053
         2        -1.0451      2.0685      0.6580      0.5604
         3         0.2727     -0.1471     -0.7791     -0.2178
         4         0.4854     -0.1660      0.0613      0.1269
         5         0.3587      0.2686     -1.1598     -0.1775
  1/2[<0|del|b>*<b|r|0> + (<0|r|b>*<b|del|0>)*] (Au)
       state          X           Y           Z        Dip. S.   Osc.(frdel)
         1        -0.0000     -0.0016     -0.0000      0.0016      0.0010
         2        -0.0001     -0.9808     -0.0000      0.9808      0.6539
         3        -0.0000     -0.0537     -0.0000      0.0538      0.0358
         4        -0.0654     -0.0000     -0.0002      0.0656      0.0437
         5        -0.0005     -0.0040     -0.0000      0.0046      0.0031

 Excitation energies and oscillator strengths:
 
 Excited State   1:      Singlet-A      2.3036 eV  538.22 nm  f=0.0010  <S**2>=0.000
      83 -> 90        -0.10306
      89 -> 90         0.69551
 This state for optimization and/or second-order correction.
 Total Energy, E(TD-HF/TD-DFT) =  -1123.73032831    
 Copying the excited state density for this state as the 1-particle RhoCI density.
 
 Excited State   2:      Singlet-A      2.8700 eV  432.00 nm  f=0.6508  <S**2>=0.000
      88 -> 90         0.70072
 
 Excited State   3:      Singlet-A      3.6450 eV  340.14 nm  f=0.0341  <S**2>=0.000
      87 -> 90         0.69672
 
 Excited State   4:      Singlet-A      3.9638 eV  312.79 nm  f=0.0428  <S**2>=0.000
      86 -> 90         0.70352
 
 Excited State   5:      Singlet-A      4.5953 eV  269.81 nm  f=0.0027  <S**2>=0.000
      85 -> 90        -0.70134
 SavETr:  write IOETrn=   770 NScale= 10 NData=  16 NLR=1 NState=    5 LETran=     100.
 NEqPCM:  Using equilibrium solvation (IEInf=0, Eps=  24.8520, EpsInf=   1.8526)
          Differentiating once with respect to electric field.
                with respect to dipole field.
          Electric field/nuclear overlap derivatives assumed to be zero.
          There are     1 degrees of freedom in the 1st order CPHF.  IDoFFX=0 NUNeed=     1.
 LinEq1:  Iter=  0 NonCon=     1 RMS=3.86D-03 Max=1.43D-01 NDo=     1
 AX will form     1 AO Fock derivatives at one time.
 LinEq1:  Iter=  1 NonCon=     1 RMS=1.30D-03 Max=1.15D-01 NDo=     1
 LinEq1:  Iter=  2 NonCon=     1 RMS=8.15D-04 Max=8.23D-02 NDo=     1
 LinEq1:  Iter=  3 NonCon=     1 RMS=3.34D-04 Max=2.65D-02 NDo=     1
 LinEq1:  Iter=  4 NonCon=     1 RMS=1.69D-04 Max=8.35D-03 NDo=     1
 LinEq1:  Iter=  5 NonCon=     1 RMS=7.41D-05 Max=3.91D-03 NDo=     1
 LinEq1:  Iter=  6 NonCon=     1 RMS=3.09D-05 Max=1.88D-03 NDo=     1
 LinEq1:  Iter=  7 NonCon=     1 RMS=1.52D-05 Max=7.27D-04 NDo=     1
 LinEq1:  Iter=  8 NonCon=     1 RMS=6.71D-06 Max=3.07D-04 NDo=     1
 LinEq1:  Iter=  9 NonCon=     1 RMS=3.59D-06 Max=2.00D-04 NDo=     1
 LinEq1:  Iter= 10 NonCon=     1 RMS=1.60D-06 Max=8.44D-05 NDo=     1
 LinEq1:  Iter= 11 NonCon=     1 RMS=6.28D-07 Max=1.73D-05 NDo=     1
 LinEq1:  Iter= 12 NonCon=     1 RMS=2.60D-07 Max=1.32D-05 NDo=     1
 LinEq1:  Iter= 13 NonCon=     1 RMS=1.13D-07 Max=8.17D-06 NDo=     1
 LinEq1:  Iter= 14 NonCon=     1 RMS=6.14D-08 Max=5.11D-06 NDo=     1
 LinEq1:  Iter= 15 NonCon=     1 RMS=2.45D-08 Max=1.85D-06 NDo=     1
 LinEq1:  Iter= 16 NonCon=     1 RMS=9.18D-09 Max=4.96D-07 NDo=     1
 LinEq1:  Iter= 17 NonCon=     1 RMS=3.51D-09 Max=1.56D-07 NDo=     1
 LinEq1:  Iter= 18 NonCon=     1 RMS=1.82D-09 Max=1.19D-07 NDo=     1
 LinEq1:  Iter= 19 NonCon=     1 RMS=6.88D-10 Max=3.17D-08 NDo=     1
 LinEq1:  Iter= 20 NonCon=     1 RMS=2.83D-10 Max=1.12D-08 NDo=     1
 LinEq1:  Iter= 21 NonCon=     1 RMS=1.39D-10 Max=5.66D-09 NDo=     1
 LinEq1:  Iter= 22 NonCon=     1 RMS=5.33D-11 Max=2.22D-09 NDo=     1
 LinEq1:  Iter= 23 NonCon=     1 RMS=3.07D-11 Max=1.12D-09 NDo=     1
 LinEq1:  Iter= 24 NonCon=     0 RMS=8.19D-12 Max=2.75D-10 NDo=     1
 Linear equations converged to 1.000D-10 1.000D-09 after    24 iterations.
 PCM Corrected Linear-Response - Non-equilibrium solvation:
 Corrected transition energy               =    1.9212          eV
 Total energy after correction             = -1123.74438098     a.u.
 End of Minotr F.D. properties file   721 does not exist.
 End of Minotr F.D. properties file   722 does not exist.
 End of Minotr F.D. properties file   788 does not exist.

 **********************************************************************

            Population analysis using the CI density.

 **********************************************************************

 Orbital symmetries:
       Occupied  (A) (A) (A) (A) (A) (A) (A) (A) (A) (A) (A) (A)
                 (A) (A) (A) (A) (A) (A) (A) (A) (A) (A) (A) (A)
                 (A) (A) (A) (A) (A) (A) (A) (A) (A) (A) (A) (A)
                 (A) (A) (A) (A) (A) (A) (A) (A) (A) (A) (A) (A)
                 (A) (A) (A) (A) (A) (A) (A) (A) (A) (A) (A) (A)
                 (A) (A) (A) (A) (A) (A) (A) (A) (A) (A) (A) (A)
                 (A) (A) (A) (A) (A) (A) (A) (A) (A) (A) (A) (A)
                 (A) (A) (A) (A) (A)
       Virtual   (A) (A) (A) (A) (A) (A) (A) (A) (A) (A) (A) (A)
                 (A) (A) (A) (A) (A) (A) (A) (A) (A) (A) (A) (A)
                 (A) (A) (A) (A) (A) (A) (A) (A) (A) (A) (A) (A)
                 (A) (A) (A) (A) (A) (A) (A) (A) (A) (A) (A) (A)
                 (A) (A) (A) (A) (A) (A) (A) (A) (A) (A) (A) (A)
                 (A) (A) (A) (A) (A) (A) (A) (A) (A) (A) (A) (A)
                 (A) (A) (A) (A) (A) (A) (A) (A) (A) (A) (A) (A)
                 (A) (A) (A) (A) (A) (A) (A) (A) (A) (A) (A) (A)
                 (A) (A) (A) (A) (A) (A) (A) (A) (A) (A) (A) (A)
                 (A) (A) (A) (A) (A) (A) (A) (A) (A) (A) (A) (A)
                 (A) (A) (A) (A) (A) (A) (A) (A) (A) (A) (A) (A)
                 (A) (A) (A) (A) (A) (A) (A) (A) (A) (A) (A) (A)
                 (A) (A) (A) (A) (A) (A) (A) (A) (A) (A) (A) (A)
                 (A) (A) (A) (A) (A) (A) (A) (A) (A) (A) (A) (A)
                 (A) (A) (A) (A) (A) (A) (A) (A) (A) (A) (A) (A)
                 (A) (A) (A) (A) (A) (A) (A) (A) (A) (A) (A) (A)
                 (A) (A) (A) (A) (A) (A) (A) (A) (A) (A) (A) (A)
                 (A) (A) (A) (A) (A) (A) (A) (A) (A) (A) (A) (A)
                 (A) (A) (A) (A) (A) (A) (A) (A) (A) (A) (A) (A)
                 (A) (A) (A) (A) (A) (A) (A) (A) (A) (A) (A) (A)
                 (A) (A) (A) (A) (A) (A) (A) (A) (A) (A) (A) (A)
                 (A) (A) (A) (A) (A) (A) (A) (A) (A) (A) (A) (A)
                 (A) (A) (A) (A) (A) (A) (A) (A) (A) (A) (A) (A)
                 (A) (A) (A) (A) (A) (A) (A) (A) (A) (A) (A) (A)
                 (A) (A) (A) (A) (A) (A) (A) (A) (A) (A) (A) (A)
                 (A) (A) (A) (A) (A) (A) (A) (A) (A) (A) (A) (A)
                 (A) (A) (A) (A) (A) (A) (A) (A) (A) (A) (A) (A)
                 (A) (A) (A) (A) (A) (A) (A) (A) (A) (A) (A) (A)
                 (A) (A) (A) (A) (A) (A) (A) (A) (A) (A) (A) (A)
                 (A) (A) (A) (A) (A) (A) (A) (A) (A) (A) (A) (A)
                 (A)
 The electronic state is 1-A.
 Alpha  occ. eigenvalues --  -25.19614 -25.19538 -14.78046 -14.78041 -14.76520
 Alpha  occ. eigenvalues --  -10.61349 -10.60421 -10.60322 -10.60311 -10.58885
 Alpha  occ. eigenvalues --  -10.58869 -10.57356 -10.57352 -10.56105 -10.56095
 Alpha  occ. eigenvalues --  -10.55713 -10.55058 -10.55058 -10.54795 -10.54789
 Alpha  occ. eigenvalues --  -10.54727 -10.54722 -10.54468 -10.54457  -7.13086
 Alpha  occ. eigenvalues --   -1.28230  -1.24667  -1.08857  -1.07002  -1.03091
 Alpha  occ. eigenvalues --   -0.94603  -0.90076  -0.89056  -0.88265  -0.84990
 Alpha  occ. eigenvalues --   -0.83739  -0.83508  -0.78772  -0.78469  -0.78206
 Alpha  occ. eigenvalues --   -0.74894  -0.70492  -0.69027  -0.68516  -0.66170
 Alpha  occ. eigenvalues --   -0.63574  -0.62578  -0.62230  -0.60200  -0.59997
 Alpha  occ. eigenvalues --   -0.58987  -0.58204  -0.56784  -0.55203  -0.54294
 Alpha  occ. eigenvalues --   -0.52058  -0.51766  -0.51208  -0.50038  -0.49330
 Alpha  occ. eigenvalues --   -0.49228  -0.48918  -0.48873  -0.48008  -0.47753
 Alpha  occ. eigenvalues --   -0.47736  -0.47278  -0.46130  -0.46109  -0.45930
 Alpha  occ. eigenvalues --   -0.45893  -0.45788  -0.45547  -0.44459  -0.44223
 Alpha  occ. eigenvalues --   -0.43614  -0.43570  -0.42698  -0.42220  -0.41162
 Alpha  occ. eigenvalues --   -0.39811  -0.39406  -0.36887  -0.33398  -0.31760
 Alpha  occ. eigenvalues --   -0.30741  -0.29742  -0.25284  -0.23835
 Alpha virt. eigenvalues --   -0.07713   0.02729   0.03617   0.07126   0.08468
 Alpha virt. eigenvalues --    0.10344   0.11043   0.11692   0.12189   0.12736
 Alpha virt. eigenvalues --    0.13178   0.13280   0.13955   0.14692   0.14871
 Alpha virt. eigenvalues --    0.15316   0.16877   0.16965   0.17320   0.17807
 Alpha virt. eigenvalues --    0.19459   0.20404   0.20503   0.20575   0.20607
 Alpha virt. eigenvalues --    0.21004   0.21133   0.21745   0.22431   0.23048
 Alpha virt. eigenvalues --    0.25191   0.25570   0.26121   0.26379   0.26635
 Alpha virt. eigenvalues --    0.27684   0.28731   0.28945   0.29987   0.30322
 Alpha virt. eigenvalues --    0.31624   0.32735   0.33387   0.34595   0.34718
 Alpha virt. eigenvalues --    0.35298   0.37408   0.38564   0.38785   0.40114
 Alpha virt. eigenvalues --    0.40683   0.41837   0.42402   0.42802   0.43535
 Alpha virt. eigenvalues --    0.43721   0.45066   0.45655   0.46080   0.46525
 Alpha virt. eigenvalues --    0.47051   0.47899   0.47988   0.48120   0.48508
 Alpha virt. eigenvalues --    0.49982   0.50230   0.50567   0.51817   0.51884
 Alpha virt. eigenvalues --    0.53633   0.53861   0.53991   0.54675   0.55317
 Alpha virt. eigenvalues --    0.55571   0.56341   0.56998   0.59343   0.60563
 Alpha virt. eigenvalues --    0.60969   0.61575   0.61804   0.62382   0.62712
 Alpha virt. eigenvalues --    0.62939   0.64023   0.65895   0.66464   0.67071
 Alpha virt. eigenvalues --    0.68266   0.68679   0.69624   0.69886   0.70428
 Alpha virt. eigenvalues --    0.70620   0.70855   0.71481   0.72260   0.72325
 Alpha virt. eigenvalues --    0.72627   0.72860   0.73509   0.73833   0.74210
 Alpha virt. eigenvalues --    0.74430   0.74637   0.74753   0.75548   0.75803
 Alpha virt. eigenvalues --    0.76812   0.77214   0.77354   0.77594   0.77659
 Alpha virt. eigenvalues --    0.79063   0.79146   0.79189   0.79797   0.80415
 Alpha virt. eigenvalues --    0.80556   0.80905   0.82105   0.82466   0.82882
 Alpha virt. eigenvalues --    0.83649   0.84877   0.85205   0.85871   0.86984
 Alpha virt. eigenvalues --    0.88445   0.88880   0.90173   0.90869   0.91695
 Alpha virt. eigenvalues --    0.94132   0.94826   0.95501   0.95802   0.97935
 Alpha virt. eigenvalues --    0.97994   1.00492   1.01297   1.04459   1.05099
 Alpha virt. eigenvalues --    1.06284   1.09137   1.11603   1.12313   1.12646
 Alpha virt. eigenvalues --    1.13713   1.16682   1.17021   1.18032   1.20458
 Alpha virt. eigenvalues --    1.21057   1.21615   1.21735   1.23256   1.23320
 Alpha virt. eigenvalues --    1.25895   1.27930   1.28259   1.28427   1.28957
 Alpha virt. eigenvalues --    1.30514   1.31441   1.32050   1.32527   1.34065
 Alpha virt. eigenvalues --    1.35089   1.35224   1.37228   1.37308   1.38033
 Alpha virt. eigenvalues --    1.38220   1.39136   1.41581   1.41748   1.43676
 Alpha virt. eigenvalues --    1.44599   1.45898   1.46168   1.48463   1.50069
 Alpha virt. eigenvalues --    1.51828   1.53708   1.56402   1.56437   1.57249
 Alpha virt. eigenvalues --    1.58524   1.58768   1.59357   1.60712   1.61148
 Alpha virt. eigenvalues --    1.61280   1.62692   1.62903   1.64107   1.64892
 Alpha virt. eigenvalues --    1.66937   1.70136   1.70180   1.70705   1.72361
 Alpha virt. eigenvalues --    1.72442   1.72812   1.72932   1.73767   1.74744
 Alpha virt. eigenvalues --    1.76427   1.77827   1.78264   1.78545   1.78675
 Alpha virt. eigenvalues --    1.78829   1.79918   1.80777   1.81238   1.81691
 Alpha virt. eigenvalues --    1.82024   1.82136   1.82192   1.82939   1.84544
 Alpha virt. eigenvalues --    1.84954   1.85242   1.85523   1.85964   1.86666
 Alpha virt. eigenvalues --    1.86855   1.87977   1.88892   1.89056   1.89967
 Alpha virt. eigenvalues --    1.90691   1.91113   1.91360   1.91651   1.91948
 Alpha virt. eigenvalues --    1.94582   1.96215   1.97748   1.98048   1.99248
 Alpha virt. eigenvalues --    1.99534   2.00339   2.01492   2.01637   2.02062
 Alpha virt. eigenvalues --    2.02313   2.02993   2.07019   2.07266   2.08236
 Alpha virt. eigenvalues --    2.08292   2.08987   2.11275   2.11664   2.12600
 Alpha virt. eigenvalues --    2.14178   2.14623   2.16457   2.16654   2.17897
 Alpha virt. eigenvalues --    2.19190   2.19526   2.19567   2.21680   2.23449
 Alpha virt. eigenvalues --    2.24269   2.24620   2.25410   2.25614   2.26555
 Alpha virt. eigenvalues --    2.27861   2.28080   2.28669   2.28998   2.29823
 Alpha virt. eigenvalues --    2.30737   2.32087   2.32795   2.38019   2.38560
 Alpha virt. eigenvalues --    2.40139   2.40770   2.41175   2.43017   2.44695
 Alpha virt. eigenvalues --    2.44823   2.45271   2.46131   2.46557   2.47760
 Alpha virt. eigenvalues --    2.50356   2.51827   2.52166   2.54205   2.54510
 Alpha virt. eigenvalues --    2.58332   2.60521   2.63878   2.64718   2.64995
 Alpha virt. eigenvalues --    2.66251   2.67874   2.68272   2.71047   2.71087
 Alpha virt. eigenvalues --    2.71363   2.72439   2.72650   2.73419   2.75047
 Alpha virt. eigenvalues --    2.75453   2.75678   2.75934   2.75972   2.77145
 Alpha virt. eigenvalues --    2.79522   2.81001   2.81909   2.83933   2.85866
 Alpha virt. eigenvalues --    2.92447   2.94027   2.94747   2.95162   2.96042
 Alpha virt. eigenvalues --    2.96310   2.96476   2.97465   2.97857   2.99282
 Alpha virt. eigenvalues --    3.03168   3.06390   3.08662   3.08810   3.10050
 Alpha virt. eigenvalues --    3.13474   3.18904   3.19602   3.20027   3.21278
 Alpha virt. eigenvalues --    3.23186   3.24301   3.24675   3.25112   3.26072
 Alpha virt. eigenvalues --    3.30772   3.33376   3.40153   3.44545   3.50804
 Alpha virt. eigenvalues --    3.52250   3.59470   3.61503   3.68019   3.80652
 Alpha virt. eigenvalues --    3.81867
          Condensed to atoms (all electrons):
               1          2          3          4          5          6
     1  C    5.113850   0.045005   0.261330   0.407521  -0.029708  -0.138548
     2  C    0.045005   5.120988   0.257977   0.017681  -0.001161  -0.000569
     3  C    0.261330   0.257977   5.738849  -0.124081   0.016221   0.018172
     4  C    0.407521   0.017681  -0.124081   5.343768   0.374364  -0.020600
     5  C   -0.029708  -0.001161   0.016221   0.374364   5.154405   0.455569
     6  C   -0.138548  -0.000569   0.018172  -0.020600   0.455569   5.049437
     7  H    0.016616   0.000005  -0.000472  -0.066367   0.458602  -0.061819
     8  C   -0.000581  -0.138704   0.018083   0.000011   0.000005   0.000039
     9  C    0.017628   0.406213  -0.125055  -0.000114  -0.000001   0.000011
    10  C   -0.001136  -0.028968   0.016467  -0.000001  -0.000001   0.000005
    11  H    0.000005   0.016624  -0.000470   0.000000  -0.000000   0.000000
    12  N    0.473996  -0.004846  -0.095658  -0.102541  -0.072908   0.403978
    13  N   -0.004671   0.474429  -0.095998  -0.000068  -0.000105  -0.000214
    14  B   -0.047654  -0.047602  -0.018110   0.002644   0.005223  -0.023588
    15  F   -0.003436  -0.003423   0.001559  -0.000037  -0.000089  -0.000542
    16  F   -0.003724  -0.003700   0.001711  -0.000042  -0.000135  -0.004949
    17  C   -0.097735  -0.099925   0.418682  -0.030461   0.002046  -0.000498
    18  C   -0.003672  -0.004518  -0.096225   0.001028  -0.000102  -0.000010
    19  C   -0.003043  -0.003934  -0.094888   0.000667  -0.000076  -0.000004
    20  C    0.000689   0.000872   0.012064  -0.000231  -0.000004   0.000000
    21  H   -0.001107  -0.001574  -0.009415   0.000108   0.000030  -0.000010
    22  C    0.000790   0.000987   0.012036  -0.000244  -0.000005  -0.000000
    23  H   -0.001218  -0.001601  -0.008364   0.000096   0.000030  -0.000006
    24  C    0.000060   0.000038   0.001262   0.000002   0.000000   0.000000
    25  H   -0.000009  -0.000008  -0.000235   0.000005  -0.000000   0.000000
    26  H   -0.000006  -0.000006  -0.000239   0.000004  -0.000000   0.000000
    27  N    0.000000   0.000000   0.000022   0.000000   0.000000   0.000000
    28  H   -0.000000  -0.000000   0.000000   0.000000  -0.000000   0.000000
    29  H   -0.000000  -0.000000   0.000000   0.000000  -0.000000   0.000000
    30  C   -0.078140   0.000140  -0.016332   0.433606  -0.084520   0.015525
    31  H   -0.002674  -0.000366  -0.001945  -0.015811   0.004371  -0.000476
    32  H   -0.003834  -0.000244  -0.000620  -0.015941   0.003760  -0.000416
    33  H    0.008854   0.000025   0.000436  -0.009056  -0.011016   0.000109
    34  C    0.010758   0.000013  -0.000349   0.013077  -0.090279   0.406779
    35  H   -0.000009  -0.000006  -0.000005  -0.000284   0.002377  -0.010932
    36  H    0.000037  -0.000004  -0.000005  -0.000388   0.004389  -0.009977
    37  H   -0.000172   0.000001   0.000010   0.000419  -0.014102  -0.002925
    38  C    0.000154  -0.078722  -0.015948  -0.000006   0.000000  -0.000000
    39  H   -0.000225  -0.003840  -0.000416  -0.000010   0.000000  -0.000000
    40  H   -0.000365  -0.002507  -0.002013  -0.000011   0.000000  -0.000000
    41  H    0.000023   0.008933   0.000402   0.000000  -0.000000   0.000000
    42  C    0.000013   0.010730  -0.000351  -0.000002   0.000000  -0.000003
    43  H   -0.000004   0.000044  -0.000004   0.000000   0.000000   0.000008
    44  H   -0.000006  -0.000016  -0.000005   0.000000   0.000000   0.000011
    45  H    0.000001  -0.000173   0.000010   0.000000   0.000000  -0.000000
[...]
    31  H   -0.001736   0.002004   0.000183   0.000215  -0.000023  -0.000508
    32  H    0.000942   0.000030  -0.000009   0.000392   0.000622  -0.000269
    33  H    0.000095  -0.000014   0.000001   0.000006   0.000001   0.000004
    34  C   -0.000000   0.000000  -0.000000   0.000000  -0.000000  -0.000000
    35  H    0.000000   0.000000  -0.000000  -0.000000   0.000000   0.000000
    36  H   -0.000000  -0.000000   0.000000   0.000000   0.000000   0.000000
    37  H    0.000000  -0.000000   0.000000  -0.000000   0.000000  -0.000000
    38  C   -0.005003  -0.000277  -0.000394  -0.000326  -0.000668  -0.000388
    39  H    0.001451   0.000008  -0.000005   0.000306   0.000634  -0.000259
    40  H   -0.001662   0.002171   0.000206   0.000205  -0.000018  -0.000538
    41  H    0.000099  -0.000017   0.000002   0.000006   0.000003   0.000006
    42  C   -0.000000   0.000000  -0.000000   0.000000  -0.000000  -0.000000
    43  H   -0.000000  -0.000000   0.000000   0.000000   0.000000   0.000000
    44  H    0.000000   0.000000  -0.000000  -0.000000   0.000000   0.000000
    45  H    0.000000  -0.000000   0.000000  -0.000000   0.000000  -0.000000
              25         26         27         28         29         30
     1  C   -0.000009  -0.000006   0.000000  -0.000000  -0.000000  -0.078140
     2  C   -0.000008  -0.000006   0.000000  -0.000000  -0.000000   0.000140
     3  C   -0.000235  -0.000239   0.000022   0.000000   0.000000  -0.016332
     4  C    0.000005   0.000004   0.000000   0.000000   0.000000   0.433606
     5  C   -0.000000  -0.000000   0.000000  -0.000000  -0.000000  -0.084520
     6  C    0.000000   0.000000   0.000000   0.000000   0.000000   0.015525
     7  H   -0.000000   0.000000  -0.000000  -0.000000  -0.000000  -0.010249
     8  C    0.000000   0.000000   0.000000   0.000000   0.000000  -0.000000
     9  C    0.000005   0.000003   0.000000   0.000000   0.000000  -0.000007
    10  C   -0.000000  -0.000000   0.000000  -0.000000  -0.000000   0.000000
    11  H   -0.000000  -0.000000  -0.000000  -0.000000  -0.000000  -0.000000
    12  N   -0.000000  -0.000000   0.000000  -0.000000  -0.000000   0.005144
    13  N   -0.000000  -0.000000   0.000000  -0.000000  -0.000000  -0.000002
    14  B   -0.000000  -0.000000   0.000000  -0.000000  -0.000000   0.000304
    15  F   -0.000000   0.000000   0.000000   0.000000  -0.000000   0.000000
    16  F    0.000000  -0.000000   0.000000  -0.000000   0.000000   0.000000
    17  C    0.014640   0.014664  -0.000411  -0.000003  -0.000002   0.004420
    18  C   -0.055158  -0.002990   0.006267  -0.000409   0.000669  -0.005052
    19  C   -0.002980  -0.055203   0.006138   0.000643  -0.000407  -0.004764
    20  C    0.463591   0.012341  -0.097095   0.009743  -0.022623  -0.000319
    21  H   -0.010627   0.000012  -0.000085   0.000007  -0.000021  -0.000350
    22  C    0.012285   0.463903  -0.096553  -0.022412   0.009695  -0.000362
    23  H    0.000013  -0.010673  -0.000085  -0.000020   0.000007  -0.000603
    24  C   -0.070804  -0.070985   0.564932   0.000646   0.000753  -0.000247
    25  H    0.580027  -0.000069  -0.009240  -0.000210   0.004007  -0.000012
    26  H   -0.000069   0.580507  -0.009208   0.003970  -0.000214  -0.000008
    27  N   -0.009240  -0.009208   5.889772   0.366023   0.366165   0.000002
    28  H   -0.000210   0.003970   0.366023   0.445997  -0.022561  -0.000000
    29  H    0.004007  -0.000214   0.366165  -0.022561   0.445805  -0.000000
    30  C   -0.000012  -0.000008   0.000002  -0.000000  -0.000000   4.544696
    31  H    0.000019   0.000016  -0.000031  -0.000000  -0.000001   0.375190
    32  H    0.000011  -0.000010  -0.000009  -0.000001   0.000000   0.378651
    33  H   -0.000000   0.000000   0.000000   0.000000   0.000000   0.377314
    34  C   -0.000000  -0.000000  -0.000000  -0.000000  -0.000000  -0.000249
    35  H   -0.000000   0.000000  -0.000000   0.000000  -0.000000   0.000011
    36  H    0.000000  -0.000000   0.000000  -0.000000   0.000000   0.000010
    37  H    0.000000   0.000000   0.000000   0.000000   0.000000  -0.000011
    38  C   -0.000010  -0.000004   0.000001  -0.000000  -0.000000  -0.000002
    39  H    0.000011  -0.000018  -0.000010  -0.000001   0.000000  -0.000001
    40  H    0.000018   0.000016  -0.000039  -0.000001  -0.000002  -0.000001
    41  H   -0.000000   0.000000   0.000000   0.000000   0.000000   0.000000
    42  C   -0.000000  -0.000000  -0.000000  -0.000000  -0.000000  -0.000000
    43  H    0.000000  -0.000000   0.000000  -0.000000   0.000000  -0.000000
    44  H   -0.000000   0.000000  -0.000000   0.000000  -0.000000  -0.000000
    45  H    0.000000   0.000000   0.000000   0.000000   0.000000  -0.000000
              31         32         33         34         35         36
     1  C   -0.002674  -0.003834   0.008854   0.010758  -0.000009   0.000037
     2  C   -0.000366  -0.000244   0.000025   0.000013  -0.000006  -0.000004
     3  C   -0.001945  -0.000620   0.000436  -0.000349  -0.000005  -0.000005
     4  C   -0.015811  -0.015941  -0.009056   0.013077  -0.000284  -0.000388
     5  C    0.004371   0.003760  -0.011016  -0.090279   0.002377   0.004389
     6  C   -0.000476  -0.000416   0.000109   0.406779  -0.010932  -0.009977
     7  H    0.000152   0.000133   0.004642  -0.009491   0.000180   0.000130
     8  C   -0.000000  -0.000000   0.000000  -0.000003   0.000012   0.000007
     9  C   -0.000010  -0.000011   0.000000  -0.000002   0.000000   0.000000
    10  C    0.000000   0.000000  -0.000000   0.000000   0.000000   0.000000
    11  H    0.000000   0.000000  -0.000000   0.000000  -0.000000  -0.000000
    12  N    0.000015   0.000017  -0.000126  -0.073119  -0.002689  -0.004097
    13  N    0.000000  -0.000000   0.000000   0.000177   0.000053   0.000107
    14  B    0.000008   0.000006   0.000000  -0.004702   0.006133   0.009253
    15  F   -0.000000   0.000000  -0.000000  -0.005162  -0.000896   0.009185
    16  F    0.000000  -0.000000  -0.000000   0.002403   0.007102  -0.002608
    17  C    0.009362   0.005796  -0.000169   0.000008  -0.000000  -0.000000
    18  C   -0.001925  -0.000626   0.000091  -0.000000  -0.000000   0.000000
    19  C   -0.001736   0.000942   0.000095  -0.000000   0.000000  -0.000000
    20  C    0.002004   0.000030  -0.000014   0.000000   0.000000  -0.000000
    21  H    0.000183  -0.000009   0.000001  -0.000000  -0.000000   0.000000
    22  C    0.000215   0.000392   0.000006   0.000000  -0.000000   0.000000
    23  H   -0.000023   0.000622   0.000001  -0.000000   0.000000   0.000000
    24  C   -0.000508  -0.000269   0.000004  -0.000000   0.000000   0.000000
    25  H    0.000019   0.000011  -0.000000  -0.000000  -0.000000   0.000000
    26  H    0.000016  -0.000010   0.000000  -0.000000   0.000000  -0.000000
    27  N   -0.000031  -0.000009   0.000000  -0.000000  -0.000000   0.000000
    28  H   -0.000000  -0.000001   0.000000  -0.000000   0.000000  -0.000000
    29  H   -0.000001   0.000000   0.000000  -0.000000  -0.000000   0.000000
    30  C    0.375190   0.378651   0.377314  -0.000249   0.000011   0.000010
    31  H    0.632208  -0.023639  -0.019286   0.000010   0.000000  -0.000001
    32  H   -0.023639   0.625509  -0.018770   0.000010  -0.000002   0.000000
    33  H   -0.019286  -0.018770   0.620027  -0.000014   0.000000   0.000000
    34  C    0.000010   0.000010  -0.000014   4.581335   0.372303   0.367956
    35  H    0.000000  -0.000002   0.000000   0.372303   0.607850  -0.026531
    36  H   -0.000001   0.000000   0.000000   0.367956  -0.026531   0.607132
    37  H   -0.000000   0.000000   0.000001   0.379125  -0.017734  -0.018428
    38  C   -0.000001  -0.000001   0.000000  -0.000000  -0.000000  -0.000000
    39  H   -0.000001   0.000008   0.000000   0.000000  -0.000000   0.000000
    40  H    0.000008  -0.000001   0.000000  -0.000000   0.000000  -0.000000
    41  H    0.000000  -0.000000  -0.000000   0.000000   0.000000   0.000000
    42  C   -0.000000  -0.000000   0.000000   0.000017  -0.000014  -0.000001
    43  H   -0.000000   0.000000   0.000000  -0.000002   0.000008  -0.000013
    44  H    0.000000  -0.000000   0.000000  -0.000012   0.000001   0.000007
    45  H    0.000000  -0.000000   0.000000   0.000000  -0.000000   0.000000
              37         38         39         40         41         42
     1  C   -0.000172   0.000154  -0.000225  -0.000365   0.000023   0.000013
     2  C    0.000001  -0.078722  -0.003840  -0.002507   0.008933   0.010730
     3  C    0.000010  -0.015948  -0.000416  -0.002013   0.000402  -0.000351
     4  C    0.000419  -0.000006  -0.000010  -0.000011   0.000000  -0.000002
     5  C   -0.014102   0.000000   0.000000   0.000000  -0.000000   0.000000
     6  C   -0.002925  -0.000000  -0.000000  -0.000000   0.000000  -0.000003
     7  H    0.003564  -0.000000   0.000000   0.000000  -0.000000   0.000000
     8  C   -0.000000   0.015574  -0.000412  -0.000485   0.000110   0.406430
     9  C    0.000000   0.434100  -0.016269  -0.016279  -0.008893   0.013068
    10  C    0.000000  -0.084621   0.003636   0.004461  -0.011028  -0.090273
    11  H   -0.000000  -0.010303   0.000138   0.000151   0.004678  -0.009484
    12  N    0.005150  -0.000003  -0.000000   0.000000   0.000000   0.000177
    13  N    0.000003   0.005135   0.000017   0.000014  -0.000125  -0.072910
    14  B   -0.000294   0.000300   0.000006   0.000008   0.000001  -0.004696
    15  F    0.000051   0.000000   0.000000  -0.000000  -0.000000  -0.005684
    16  F    0.000169   0.000000  -0.000000   0.000000  -0.000000   0.003174
    17  C   -0.000000   0.004253   0.004909   0.009014  -0.000128   0.000008
    18  C   -0.000000  -0.005534  -0.000530  -0.001888   0.000095  -0.000000
    19  C    0.000000  -0.005003   0.001451  -0.001662   0.000099  -0.000000
    20  C   -0.000000  -0.000277   0.000008   0.002171  -0.000017   0.000000
    21  H    0.000000  -0.000394  -0.000005   0.000206   0.000002  -0.000000
    22  C   -0.000000  -0.000326   0.000306   0.000205   0.000006   0.000000
    23  H    0.000000  -0.000668   0.000634  -0.000018   0.000003  -0.000000
    24  C   -0.000000  -0.000388  -0.000259  -0.000538   0.000006  -0.000000
    25  H    0.000000  -0.000010   0.000011   0.000018  -0.000000  -0.000000
    26  H    0.000000  -0.000004  -0.000018   0.000016   0.000000  -0.000000
    27  N    0.000000   0.000001  -0.000010  -0.000039   0.000000  -0.000000
    28  H    0.000000  -0.000000  -0.000001  -0.000001   0.000000  -0.000000
    29  H    0.000000  -0.000000   0.000000  -0.000002   0.000000  -0.000000
    30  C   -0.000011  -0.000002  -0.000001  -0.000001   0.000000  -0.000000
    31  H   -0.000000  -0.000001  -0.000001   0.000008   0.000000  -0.000000
    32  H    0.000000  -0.000001   0.000008  -0.000001  -0.000000  -0.000000
    33  H    0.000001   0.000000   0.000000   0.000000  -0.000000   0.000000
    34  C    0.379125  -0.000000   0.000000  -0.000000   0.000000   0.000017
    35  H   -0.017734  -0.000000  -0.000000   0.000000   0.000000  -0.000014
    36  H   -0.018428  -0.000000   0.000000  -0.000000   0.000000  -0.000001
    37  H    0.620352  -0.000000  -0.000000   0.000000   0.000000   0.000000
    38  C   -0.000000   4.547432   0.379203   0.375712   0.377001  -0.000249
    39  H   -0.000000   0.379203   0.624582  -0.023799  -0.018599   0.000010
    40  H    0.000000   0.375712  -0.023799   0.632022  -0.019100   0.000010
    41  H    0.000000   0.377001  -0.018599  -0.019100   0.619961  -0.000014
    42  C    0.000000  -0.000249   0.000010   0.000010  -0.000014   4.581638
    43  H    0.000000   0.000011   0.000000  -0.000001  -0.000000   0.367412
    44  H   -0.000000   0.000011  -0.000002   0.000000   0.000000   0.372703
    45  H   -0.000000  -0.000011   0.000000  -0.000000   0.000001   0.379198
              43         44         45
     1  C   -0.000004  -0.000006   0.000001
     2  C    0.000044  -0.000016  -0.000173
     3  C   -0.000004  -0.000005   0.000010
     4  C    0.000000   0.000000   0.000000
     5  C    0.000000   0.000000   0.000000
     6  C    0.000008   0.000011  -0.000000
     7  H   -0.000000  -0.000000  -0.000000
     8  C   -0.009723  -0.011053  -0.002985
     9  C   -0.000410  -0.000264   0.000425
    10  C    0.004727   0.002024  -0.014115
    11  H    0.000125   0.000187   0.003557
    12  N    0.000112   0.000050   0.000003
    13  N   -0.004237  -0.002564   0.005143
    14  B    0.009336   0.006024  -0.000292
    15  F    0.009589  -0.000799   0.000046
    16  F   -0.002797   0.006614   0.000174
    17  C   -0.000000  -0.000000  -0.000000
    18  C    0.000000  -0.000000  -0.000000
    19  C   -0.000000   0.000000   0.000000
    20  C   -0.000000   0.000000  -0.000000
    21  H    0.000000  -0.000000   0.000000
    22  C    0.000000  -0.000000  -0.000000
    23  H    0.000000   0.000000   0.000000
    24  C    0.000000   0.000000  -0.000000
    25  H    0.000000  -0.000000   0.000000
    26  H   -0.000000   0.000000   0.000000
    27  N    0.000000  -0.000000   0.000000
    28  H   -0.000000   0.000000   0.000000
    29  H    0.000000  -0.000000   0.000000
    30  C   -0.000000  -0.000000  -0.000000
    31  H   -0.000000   0.000000   0.000000
    32  H    0.000000  -0.000000  -0.000000
    33  H    0.000000   0.000000   0.000000
    34  C   -0.000002  -0.000012   0.000000
    35  H    0.000008   0.000001  -0.000000
    36  H   -0.000013   0.000007   0.000000
    37  H    0.000000  -0.000000  -0.000000
    38  C    0.000011   0.000011  -0.000011
    39  H    0.000000  -0.000002   0.000000
    40  H   -0.000001   0.000000  -0.000000
    41  H   -0.000000   0.000000   0.000001
    42  C    0.367412   0.372703   0.379198
    43  H    0.606783  -0.026408  -0.018455
    44  H   -0.026408   0.608274  -0.017780
    45  H   -0.018455  -0.017780   0.620388
 Mulliken charges:
               1
     1  C    0.064347
     2  C    0.065710
     3  C   -0.068090
     4  C   -0.208705
     5  C   -0.177181
     6  C   -0.073553
     7  H    0.004574
     8  C   -0.073190
     9  C   -0.207185
    10  C   -0.177314
    11  H    0.004618
    12  N   -0.212773
    13  N   -0.213339
    14  B    0.198845
    15  F   -0.273241
    16  F   -0.273911
    17  C   -0.166576
    18  C    0.069888
    19  C    0.067083
    20  C    0.021133
    21  H    0.069835
    22  C    0.021190
    23  H    0.070473
    24  C    0.015081
    25  H    0.074729
    26  H    0.074196
    27  N    0.013446
    28  H    0.218589
    29  H    0.218731
    30  C    0.066218
    31  H    0.044676
    32  H    0.048514
    33  H    0.046844
    34  C    0.049412
    35  H    0.063071
    36  H    0.063840
    37  H    0.044821
    38  C    0.063584
    39  H    0.049477
    40  H    0.044692
    41  H    0.046583
    42  C    0.049093
    43  H    0.063899
    44  H    0.063003
    45  H    0.044862
 Sum of Mulliken charges =  -0.00000
 Mulliken charges with hydrogens summed into heavy atoms:
               1
     1  C    0.064347
     2  C    0.065710
     3  C   -0.068090
     4  C   -0.208705
     5  C   -0.172607
     6  C   -0.073553
     8  C   -0.073190
     9  C   -0.207185
    10  C   -0.172696
    12  N   -0.212773
    13  N   -0.213339
    14  B    0.198845
    15  F   -0.273241
    16  F   -0.273911
    17  C   -0.166576
    18  C    0.139724
    19  C    0.137555
    20  C    0.095861
    22  C    0.095387
    24  C    0.015081
    27  N    0.450766
    30  C    0.206252
    34  C    0.221144
    38  C    0.204336
    42  C    0.220858
 Electronic spatial extent (au):  <R**2>=           8328.2800
 Charge=              0.0000 electrons
 Dipole moment (field-independent basis, Debye):
    X=            -29.5054    Y=             -0.0782    Z=              0.0986  Tot=             29.5057
 Quadrupole moment (field-independent basis, Debye-Ang):
   XX=            -51.2480   YY=           -149.4542   ZZ=           -142.0042
   XY=             -0.0744   XZ=             -2.9542   YZ=             -0.0157
 Traceless Quadrupole moment (field-independent basis, Debye-Ang):
   XX=             62.9875   YY=            -35.2188   ZZ=            -27.7687
   XY=             -0.0744   XZ=             -2.9542   YZ=             -0.0157
 Octapole moment (field-independent basis, Debye-Ang**2):
  XXX=           -774.2037  YYY=              0.7314  ZZZ=              3.7880  XYY=             21.7035
  XXY=             -0.6161  XXZ=             12.1645  XZZ=            -64.2212  YZZ=             -0.0612
  YYZ=             -0.1679  XYZ=             -0.0416
 Hexadecapole moment (field-independent basis, Debye-Ang**3):
 XXXX=          -2646.0716 YYYY=          -3532.5781 ZZZZ=           -474.9273 XXXY=             -3.4540
 XXXZ=            -86.9209 YYYX=              1.5271 YYYZ=              0.5018 ZZZX=            -16.3710
 ZZZY=             -0.1449 XXYY=          -1720.2179 XXZZ=          -1029.1464 YYZZ=           -762.5355
 XXYZ=             -0.1249 YYXZ=              4.1065 ZZXY=              0.8402
 N-N= 2.219537732954D+03 E-N=-7.059487336015D+03  KE= 1.112412239698D+03
 1\1\GINC-X1001C1S7B1N0\SP\RM062X TD-FC\def2SVP\C19H20B1F2N3\XIAOGAN4\1
 9-Jan-2026\0\\# m062x/def2SVP TD=(NStates=5, Root=1, Read) SCRF=(SMD, 
 solvent=Ethanol, CorrectedLR) guess=read geom=check\\Step6 ES cLR m062
 x/def2SVP\\0,1\C,0,0.3895423281,-1.2422657991,-0.0513138828\C,0,0.3631
 176279,1.2318110801,-0.0518800371\C,0,-0.340011394,-0.0129933155,-0.05
 20911637\C,0,-0.0518494268,-2.5821396403,-0.0846524103\C,0,1.122879269
 5,-3.3755721561,-0.0633865186\C,0,2.2209050573,-2.5268565214,-0.016764
 2189\H,0,1.1648144187,-4.4638014009,-0.0834362187\C,0,2.1691795107,2.5
 522211416,-0.0163846257\C,0,-0.1041972222,2.5630715016,-0.0851173206\C
 ,0,1.0548491447,3.3791388637,-0.0629464364\H,0,1.0752854702,4.46799801
 55,-0.0826611096\N,0,1.7731084163,-1.2344260131,-0.0090384988\N,0,1.74
 69195547,1.2512188244,-0.0091471962\B,0,2.6627160844,0.0177130033,0.07
 23004125\F,0,3.391701939,0.025197057,1.2800915619\F,0,3.5945885482,0.0
 276531991,-0.9830254907\C,0,-1.7986202455,-0.0297747929,-0.0149492181\
 C,0,-2.48671905,-0.0203578004,1.2431328316\C,0,-2.577771325,-0.0204685
 81,-1.2186071593\C,0,-3.8471242374,-0.0125466432,1.3066208448\H,0,-1.8
 932846129,-0.0204076416,2.1586165393\C,0,-3.9396214819,-0.0128998205,-
 1.1817699108\H,0,-2.0538138043,-0.0206967376,-2.1756042408\C,0,-4.6161
 216601,-0.009968904,0.0894204704\H,0,-4.3781333762,-0.0058610529,2.259
 3695661\H,0,-4.5379683882,-0.0067002848,-2.0936767719\N,0,-5.928885929
 5,-0.00356326,0.1413432866\H,0,-6.4871901101,-0.0011928377,-0.71002073
 25\H,0,-6.4163797392,-0.0008932545,1.035145462\C,0,-1.4584353336,-3.09
 73688812,-0.1533930227\H,0,-2.0705096933,-2.782072021,0.7067480066\H,0
 ,-1.9836403674,-2.7635973296,-1.0628980586\H,0,-1.4533328103,-4.196724
 991,-0.1651354422\C,0,3.6756226066,-2.8661965631,0.0140186865\H,0,4.19
 46762521,-2.4973920798,-0.8836064285\H,0,4.1725138209,-2.4112509792,0.
 8842438342\H,0,3.8053438312,-3.9546711818,0.0679929548\C,0,-1.51917670
 18,3.0542488787,-0.1564424286\H,0,-2.0340548892,2.7195836868,-1.071495
 2369\H,0,-2.1305018783,2.722014447,0.6977484989\H,0,-1.5322628216,4.15
 35898849,-0.1593384003\C,0,3.6166712992,2.921304452,0.0121274385\H,0,4
 .1288659642,2.4588873735,0.8692665539\H,0,4.1376110114,2.5838220732,-0
 .8967186945\H,0,3.7235173434,4.0109770018,0.0881019252\\Version=ES64L-
 G16RevA.03\State=1-A\HF=-1123.8149841\RMSD=2.460e-09\Dipole=-11.608314
 7,-0.031942,0.0388104\Quadrupole=46.8296717,-26.1842994,-20.6453723,-0
 .047826,-2.1963927,-0.0118617\PG=C01 [X(C19H20B1F2N3)]\\@


 UNDER MOST GREENE GRASSE LY MOST GREATE SNAKES.
 -- PROVERBS AND REASONS OF THE YEAR 1585
           AS REPRINTED IN PAISLEY MAGAZINE 1828.
 Job cpu time:       0 days 11 hours 25 minutes 47.4 seconds.
 Elapsed time:       0 days  0 hours 17 minutes 18.3 seconds.
 File lengths (MBytes):  RWF=   1526 Int=      0 D2E=      0 Chk=     55 Scr=      1
 Normal termination of Gaussian 16 at Mon Jan 19 12:32:45 2026.
