 Entering Gaussian System, Link 0=g16
 Initial command:
 /home/users/ntu/xiaogan4/Softwares/g16/l1.exe "/scratch/users/ntu/xiaogan4/g16scratch/Gau-2355303.inp" -scrdir="/scratch/users/ntu/xiaogan4/g16scratch/"
 Entering Link 1 = /home/users/ntu/xiaogan4/Softwares/g16/l1.exe PID=   2355304.
  
 Copyright (c) 1988,1990,1992,1993,1995,1998,2003,2009,2016,
            Gaussian, Inc.  All Rights Reserved.
  
 This is part of the Gaussian(R) 16 program.  It is based on
 the Gaussian(R) 09 system (copyright 2009, Gaussian, Inc.),
 the Gaussian(R) 03 system (copyright 2003, Gaussian, Inc.),
 the Gaussian(R) 98 system (copyright 1998, Gaussian, Inc.),
 the Gaussian(R) 94 system (copyright 1995, Gaussian, Inc.),
 the Gaussian 92(TM) system (copyright 1992, Gaussian, Inc.),
 the Gaussian 90(TM) system (copyright 1990, Gaussian, Inc.),
 the Gaussian 88(TM) system (copyright 1988, Gaussian, Inc.),
 the Gaussian 86(TM) system (copyright 1986, Carnegie Mellon
 University), and the Gaussian 82(TM) system (copyright 1983,
 Carnegie Mellon University). Gaussian is a federally registered
 trademark of Gaussian, Inc.
  
 This software contains proprietary and confidential information,
 including trade secrets, belonging to Gaussian, Inc.
  
 This software is provided under written license and may be
 used, copied, transmitted, or stored only in accord with that
 written license.
  
 The following legend is applicable only to US Government
 contracts under FAR:
  
                    RESTRICTED RIGHTS LEGEND
  
 Use, reproduction and disclosure by the US Government is
 subject to restrictions as set forth in subparagraphs (a)
 and (c) of the Commercial Computer Software - Restricted
 Rights clause in FAR 52.227-19.
  
 Gaussian, Inc.
 340 Quinnipiac St., Bldg. 40, Wallingford CT 06492
  
  
 ---------------------------------------------------------------
 Warning -- This program may not be used in any manner that
 competes with the business of Gaussian, Inc. or will provide
 assistance to any competitor of Gaussian, Inc.  The licensee
 of this program is prohibited from giving any competitor of
 Gaussian, Inc. access to this program.  By using this program,
 the user acknowledges that Gaussian, Inc. is engaged in the
 business of creating and licensing software in the field of
 computational chemistry and represents and warrants to the
 licensee that it is not a competitor of Gaussian, Inc. and that
 it will not use this program in any manner prohibited above.
 ---------------------------------------------------------------
  

 Cite this work as:
 Gaussian 16, Revision A.03,
 M. J. Frisch, G. W. Trucks, H. B. Schlegel, G. E. Scuseria, 
 M. A. Robb, J. R. Cheeseman, G. Scalmani, V. Barone, 
 G. A. Petersson, H. Nakatsuji, X. Li, M. Caricato, A. V. Marenich, 
 J. Bloino, B. G. Janesko, R. Gomperts, B. Mennucci, H. P. Hratchian, 
 J. V. Ortiz, A. F. Izmaylov, J. L. Sonnenberg, D. Williams-Young, 
 F. Ding, F. Lipparini, F. Egidi, J. Goings, B. Peng, A. Petrone, 
 T. Henderson, D. Ranasinghe, V. G. Zakrzewski, J. Gao, N. Rega, 
 G. Zheng, W. Liang, M. Hada, M. Ehara, K. Toyota, R. Fukuda, 
 J. Hasegawa, M. Ishida, T. Nakajima, Y. Honda, O. Kitao, H. Nakai, 
 T. Vreven, K. Throssell, J. A. Montgomery, Jr., J. E. Peralta, 
 F. Ogliaro, M. J. Bearpark, J. J. Heyd, E. N. Brothers, K. N. Kudin, 
 V. N. Staroverov, T. A. Keith, R. Kobayashi, J. Normand, 
 K. Raghavachari, A. P. Rendell, J. C. Burant, S. S. Iyengar, 
 J. Tomasi, M. Cossi, J. M. Millam, M. Klene, C. Adamo, R. Cammi, 
 J. W. Ochterski, R. L. Martin, K. Morokuma, O. Farkas, 
 J. B. Foresman, and D. J. Fox, Gaussian, Inc., Wallingford CT, 2016.
 
 ******************************************
 Gaussian 16:  ES64L-G16RevA.03 25-Dec-2016
                22-Dec-2025 
 ******************************************
 %nprocshared=64
 Will use up to   64 processors via shared memory.
 %mem=128GB
 %oldchk=04BDP-NH2__m062x_def2SVP_dmso.chk
 %chk=06BDP-NH2__m062x_def2SVP_dmso.chk
 Copying data from "04BDP-NH2__m062x_def2SVP_dmso.chk" to current chk file "06BDP-NH2__m062x_def2SVP_dmso.chk"
 IOpt=  2 FromEx=T IUOpen= 4 IOptOp= 5 NList=   0 IFRang= 0 IUIn= 4 IUOut= 2.
 ----------------------------------------------------------------------
 # m062x/def2SVP TD=(NStates=5, Root=1) SCRF=(SMD, solvent=Ethanol, Cor
 rectedLR) geom=check guess=read
 ----------------------------------------------------------------------
 1/29=2,30=1,38=1,172=1/1;
 2/12=2,40=1/2;
 3/5=43,7=101,11=9,14=-4,25=1,30=1,70=32201,71=1,72=4,74=-55,116=-2/1,2,3,8;
 4/5=1/1;
 5/5=2,38=6,53=4/2;
 8/6=1,10=1,107=1,108=5/1;
 9/8=1,15=1,41=5,42=1,70=2,73=21/14;
 10/5=4,13=10,28=1,74=10/2;
 6/7=2,8=2,9=2,10=2,22=-1/1;
 99/5=1,9=1/99;
 --------------------------
 Step6 ES cLR m062x/def2SVP
 --------------------------
 Structure from the checkpoint file:  "06BDP-NH2__m062x_def2SVP_dmso.chk"
 Charge =  0 Multiplicity = 1
 Z-Matrix found in chk file.
 C,0,0.766024,1.238287,-0.069486
 C,0,0.766013,-1.238284,-0.069489
 C,0,0.060193,0.000005,-0.138718
 C,0,0.321959,2.590438,-0.113804
 C,0,1.487228,3.387875,0.001472
 C,0,2.593685,2.549645,0.111514
 H,0,1.51918,4.477913,0.004465
 C,0,2.593662,-2.549659,0.111506
 C,0,0.321935,-2.590431,-0.11381
 C,0,1.487198,-3.387878,0.001463
 H,0,1.519139,-4.477917,0.004452
 N,0,2.155738,1.245179,0.06795
 N,0,2.155726,-1.245188,0.067947
 B,0,3.047183,-0.000009,0.159849
 F,0,4.006927,-0.000012,-0.888189
 F,0,3.772786,-0.000014,1.382158
 C,0,-1.418644,0.000011,-0.282082
 C,0,-2.262037,0.000013,0.865449
 C,0,-2.027394,0.000015,-1.570456
 C,0,-3.6303,0.000014,0.747093
 H,0,-1.804081,0.000012,1.856076
 C,0,-3.393234,0.000017,-1.717981
 H,0,-1.386908,0.000015,-2.454164
 C,0,-4.233565,0.000015,-0.555764
 H,0,-4.281022,0.000015,1.622507
 H,0,-3.859471,0.000018,-2.705265
 N,0,-5.557286,0.000012,-0.669874
 H,0,-5.991927,0.000012,-1.591092
 H,0,-6.160507,0.000004,0.173795
 O,0,-7.020375,-0.000023,1.709151
 H,0,-6.930779,0.766947,2.298263
 H,0,-6.930758,-0.767003,2.298246
 C,0,-1.073466,3.128534,-0.252295
 H,0,-1.56394,2.817619,-1.190343
 H,0,-1.739176,2.81625,0.570169
 H,0,-1.053033,4.229911,-0.24944
 C,0,4.034587,2.923251,0.25585
 H,0,4.471294,2.524669,1.187067
 H,0,4.647343,2.52786,-0.57169
 H,0,4.14165,4.017719,0.26846
 C,0,-1.073495,-3.128514,-0.252303
 H,0,-1.7392,-2.816228,0.570164
 H,0,-1.563967,-2.817591,-1.190349
 H,0,-1.053071,-4.229892,-0.249453
 C,0,4.034561,-2.923278,0.255841
 H,0,4.64732,-2.527891,-0.571699
 H,0,4.471272,-2.524703,1.187059
 H,0,4.141614,-4.017748,0.268447
 Recover connectivity data from disk.
                          Input orientation:                          
 ---------------------------------------------------------------------
 Center     Atomic      Atomic             Coordinates (Angstroms)
 Number     Number       Type             X           Y           Z
 ---------------------------------------------------------------------
      1          6           0        0.766024    1.238287   -0.069486
      2          6           0        0.766013   -1.238284   -0.069489
      3          6           0        0.060193    0.000005   -0.138718
      4          6           0        0.321959    2.590438   -0.113804
      5          6           0        1.487228    3.387875    0.001472
      6          6           0        2.593685    2.549645    0.111514
      7          1           0        1.519180    4.477913    0.004465
      8          6           0        2.593662   -2.549659    0.111506
      9          6           0        0.321935   -2.590431   -0.113810
     10          6           0        1.487198   -3.387878    0.001463
     11          1           0        1.519139   -4.477917    0.004452
     12          7           0        2.155738    1.245179    0.067950
     13          7           0        2.155726   -1.245188    0.067947
     14          5           0        3.047183   -0.000009    0.159849
     15          9           0        4.006927   -0.000012   -0.888189
     16          9           0        3.772786   -0.000014    1.382158
     17          6           0       -1.418644    0.000011   -0.282082
     18          6           0       -2.262037    0.000013    0.865449
     19          6           0       -2.027394    0.000015   -1.570456
     20          6           0       -3.630300    0.000014    0.747093
     21          1           0       -1.804081    0.000012    1.856076
     22          6           0       -3.393234    0.000017   -1.717981
     23          1           0       -1.386908    0.000015   -2.454164
     24          6           0       -4.233565    0.000015   -0.555764
     25          1           0       -4.281022    0.000015    1.622507
     26          1           0       -3.859471    0.000018   -2.705265
     27          7           0       -5.557286    0.000012   -0.669874
     28          1           0       -5.991927    0.000012   -1.591092
     29          1           0       -6.160507    0.000004    0.173795
     30          8           0       -7.020375   -0.000023    1.709151
     31          1           0       -6.930779    0.766947    2.298263
     32          1           0       -6.930758   -0.767003    2.298246
     33          6           0       -1.073466    3.128534   -0.252295
     34          1           0       -1.563940    2.817619   -1.190343
     35          1           0       -1.739176    2.816250    0.570169
     36          1           0       -1.053033    4.229911   -0.249440
     37          6           0        4.034587    2.923251    0.255850
     38          1           0        4.471294    2.524669    1.187067
     39          1           0        4.647343    2.527860   -0.571690
     40          1           0        4.141650    4.017719    0.268460
     41          6           0       -1.073495   -3.128514   -0.252303
     42          1           0       -1.739200   -2.816228    0.570164
     43          1           0       -1.563967   -2.817591   -1.190349
     44          1           0       -1.053071   -4.229892   -0.249453
     45          6           0        4.034561   -2.923278    0.255841
     46          1           0        4.647320   -2.527891   -0.571699
     47          1           0        4.471272   -2.524703    1.187059
     48          1           0        4.141614   -4.017748    0.268447
 ---------------------------------------------------------------------
                    Distance matrix (angstroms):
                    1          2          3          4          5
     1  C    0.000000
     2  C    2.476571   0.000000
     3  C    1.427001   1.427002   0.000000
     4  C    1.423893   3.854641   2.603744   0.000000
     5  C    2.268457   4.682578   3.678824   1.416703   0.000000
     6  C    2.256716   4.209698   3.603035   2.283237   1.392475
     7  H    3.326844   5.766076   4.711773   2.238278   1.090510
     8  C    4.209698   2.256715   3.603035   5.624233   6.040746
     9  C    3.854642   1.423893   2.603745   5.180869   6.091908
    10  C    4.682577   2.268457   3.678824   6.091907   6.775753
    11  H    5.766076   3.326844   4.711773   7.169998   7.865857
    12  N    1.396510   2.849178   2.446319   2.281557   2.245545
    13  N    2.849177   1.396509   2.446319   4.255322   4.681515
    14  B    2.605697   2.605697   3.001875   3.769900   3.733136
    15  F    3.564704   3.564703   4.017265   4.570459   4.314876
    16  F    3.561078   3.561078   4.012033   4.566897   4.313683
    17  C    2.520178   2.520178   1.485770   3.125433   4.472373
    18  C    3.402437   3.402437   2.530040   3.787647   5.126505
    19  C    3.404323   3.404322   2.531382   3.788349   5.128462
    20  C    4.639805   4.639801   3.795313   4.803310   6.182447
    21  H    3.441882   3.441883   2.730333   3.887259   5.074435
    22  C    4.642227   4.642225   3.797398   4.804823   6.184902
    23  H    3.443127   3.443128   2.730456   3.886876   5.076259
    24  C    5.173555   5.173551   4.313964   5.259127   6.672000
    25  H    5.465238   5.465235   4.684876   5.559901   6.883172
    26  H    5.465880   5.465877   4.685182   5.559703   6.884126
    27  N    6.471324   6.471317   5.642535   6.448647   7.845604
    28  H    7.036939   7.036932   6.223949   6.982682   8.363709
    29  H    7.040551   7.040541   6.228545   6.986804   8.366314
    30  O    8.082386   8.082369   7.317723   7.996469   9.315220
    31  H    8.066547   8.298663   7.443169   7.857824   9.110837
    32  H    8.298662   8.066508   7.443151   8.348191   9.664402
    33  C    2.643894   4.741962   3.329531   1.501978   2.586273
    34  H    3.029743   4.809921   3.417992   2.183383   3.324942
    35  H    3.029051   4.808782   3.416356   2.183366   3.325636
    36  H    3.505876   5.765628   4.375344   2.144032   2.687919
    37  C    3.691673   5.301679   4.949430   3.745800   2.601850
    38  H    4.118583   5.428430   5.252566   4.348974   3.324968
    39  H    4.120661   5.431461   5.255422   4.350003   3.324826
    40  H    4.385693   6.255774   5.741612   4.095521   2.741157
    41  C    4.741962   2.643895   3.329532   5.888369   7.006071
    42  H    4.808783   3.029052   3.416357   5.826511   7.015992
    43  H    4.809921   3.029743   3.417992   5.827731   7.016982
    44  H    5.765629   3.505877   4.375345   6.958880   8.034081
    45  C    5.301679   3.691673   4.949430   6.657411   6.810599
    46  H    5.431461   4.120661   5.255422   6.716823   6.731344
    47  H    5.428431   4.118584   5.252566   6.713696   6.728203
    48  H    6.255774   4.385693   5.741613   7.642251   7.871486
                    6          7          8          9         10
     6  C    0.000000
     7  H    2.210031   0.000000
     8  C    5.099304   7.110045   0.000000
     9  C    5.624233   7.169998   2.283237   0.000000
    10  C    6.040745   7.865857   1.392474   1.416703   0.000000
    11  H    7.110045   8.955830   2.210031   2.238278   1.090511
    12  N    1.376709   3.295422   3.820271   4.255323   4.681515
    13  N    3.820270   5.758742   1.376710   2.281557   2.245545
    14  B    2.590122   4.733996   2.590122   3.769901   3.733135
    15  F    3.081787   5.199762   3.081786   4.570459   4.314876
    16  F    3.083111   5.198905   3.083112   4.566898   4.313682
    17  C    4.770150   5.363257   4.770150   3.125431   4.472372
    18  C    5.535980   5.923722   5.535980   3.787646   5.126504
    19  C    5.539315   5.925380   5.539313   3.788347   5.128460
    20  C    6.755928   6.864417   6.755924   4.803303   6.182440
    21  H    5.374427   5.875723   5.374429   3.887260   5.074436
    22  C    6.759501   6.866599   6.759497   4.804817   6.184896
    23  H    5.378516   5.877225   5.378516   3.886877   5.076259
    24  C    7.318280   7.311601   7.318273   5.259117   6.671990
    25  H    7.486342   7.504130   7.486337   5.559894   6.883165
    26  H    7.488529   7.504936   7.488523   5.559696   6.884118
    27  N    8.576102   8.401351   8.576091   6.448631   7.845588
    28  H    9.116591   8.888989   9.116578   6.982665   8.363692
    29  H    9.118137   8.891453   9.118121   6.986782   8.366292
    30  O   10.073897   9.791929  10.073868   7.996431   9.315179
    31  H    9.933544   9.509710  10.319727   8.348170   9.664378
    32  H   10.319737  10.206470   9.933492   7.857764   9.110773
    33  C    3.730344   2.934035   6.769199   5.888368   7.006070
    34  H    4.364916   3.699969   6.912897   5.827731   7.016982
    35  H    4.365218   3.701085   6.912079   5.826509   7.015990
    36  H    4.031394   2.596585   7.706571   6.958879   8.034080
    37  C    1.495531   2.967733   5.661258   6.657411   6.810599
    38  H    2.163990   3.732116   5.516443   6.713696   6.728202
    39  H    2.164429   3.730960   5.519562   6.716823   6.731343
    40  H    2.139175   2.675597   6.749174   7.642251   7.871485
    41  C    6.769199   8.040250   3.730345   1.501978   2.586274
    42  H    6.912080   8.008842   4.365217   2.183365   3.325635
    43  H    6.912897   8.009854   4.364916   2.183384   3.324944
    44  H    7.706572   9.083326   4.031394   2.144032   2.687920
    45  C    5.661258   7.820995   1.495531   3.745800   2.601849
    46  H    5.519562   7.694057   2.164429   4.350003   3.324825
    47  H    5.516442   7.690904   2.163991   4.348974   3.324967
    48  H    6.749175   8.895117   2.139175   4.095522   2.741157
                   11         12         13         14         15
    11  H    0.000000
    12  N    5.758743   0.000000
    13  N    3.295423   2.490367   0.000000
    14  B    4.733997   1.534149   1.534149   0.000000
    15  F    5.199763   2.427262   2.427263   1.421088   0.000000
    16  F    5.198905   2.427446   2.427446   1.421457   2.282389
    17  C    5.363256   3.801207   3.801205   4.487640   5.459321
    18  C    5.923721   4.658667   4.658666   5.355902   6.509620
    19  C    5.925378   4.661910   4.661908   5.361463   6.072769
    20  C    6.864408   5.957341   5.957337   6.703256   7.810338
    21  H    5.875726   4.519735   4.519734   5.139256   6.426415
    22  C    6.866591   5.960794   5.960791   6.708593   7.446539
    23  H    5.877225   4.523476   4.523475   5.147254   5.616559
    24  C    7.311588   6.539315   6.539311   7.315832   8.247194
    25  H    7.504122   6.737875   6.737871   7.472748   8.659890
    26  H    7.504926   6.739725   6.739721   7.477349   8.073536
    27  N    8.401331   7.847647   7.847640   8.644381   9.566704
    28  H    8.888966   8.407574   8.407567   9.207133  10.023530
    29  H    8.891424   8.409613   8.409604   9.207701  10.222745
    30  O    9.791876   9.404526   9.404510  10.186072  11.329058
    31  H   10.206433   9.368447   9.570139  10.233316  11.418192
    32  H    9.509634   9.570136   9.368409  10.233295  11.418170
    33  C    8.040250   3.751978   5.446070   5.190124   6.000213
    34  H    8.009854   4.229879   5.650275   5.569964   6.250192
    35  H    8.008840   4.229757   5.649581   5.568564   6.563219
    36  H    9.083325   4.393811   6.354021   5.905211   6.625967
    37  C    7.820995   2.526125   4.576168   3.087010   3.139276
    38  H    7.690904   2.872511   4.563563   3.075267   3.300960
    39  H    7.694057   2.874457   4.566528   3.079900   2.626869
    40  H    8.895116   3.416289   5.628702   4.165548   4.183079
    41  C    2.934035   5.446072   3.751979   5.190125   6.000214
    42  H    3.701083   5.649583   4.229756   5.568564   6.563219
    43  H    3.699970   5.650276   4.229879   5.569965   6.250193
    44  H    2.596584   6.354023   4.393811   5.905211   6.625968
    45  C    2.967734   4.576168   2.526126   3.087010   3.139276
    46  H    3.730961   4.566529   2.874459   3.079901   2.626869
    47  H    3.732116   4.563564   2.872512   3.075267   3.300960
    48  H    2.675598   5.628704   3.416290   4.165549   4.183079
                   16         17         18         19         20
    16  F    0.000000
    17  C    5.451664   0.000000
    18  C    6.056903   1.424128   0.000000
    19  C    6.508457   1.424951   2.447180   0.000000
    20  C    7.430275   2.439390   1.373372   2.817861   0.000000
    21  H    5.596967   2.172621   1.091359   3.433801   2.136567
    22  C    7.807862   2.441477   2.820234   1.373784   2.476447
    23  H    6.429604   2.172314   3.433028   1.091404   3.909073
    24  C    8.237548   2.828194   2.430385   2.428331   1.435745
    25  H    8.057394   3.438120   2.156255   3.908178   1.090774
    26  H    8.657850   3.439397   3.911751   2.155063   3.459956
    27  N    9.553066   4.156770   3.635366   3.642964   2.391876
    28  H   10.207342   4.756934   4.466170   3.964587   3.323310
    29  H   10.006520   4.763726   3.959350   4.486093   2.594343
    30  O   10.798113   5.945116   4.832558   5.973749   3.523942
    31  H   10.770041   6.134330   4.943510   6.292722   3.726590
    32  H   10.770021   6.134314   4.943498   6.292706   3.726582
    33  C    5.995449   3.147649   3.528413   3.526352   4.162189
    34  H    6.560294   2.963944   3.557039   2.880654   3.995297
    35  H    6.242787   2.959776   2.879542   3.549158   3.396886
    36  H    6.621398   4.245797   4.538359   4.537233   5.052466
    37  C    3.143658   6.210671   6.968817   6.973401   8.218098
    38  H    2.626785   6.574471   7.198269   7.497383   8.497252
    39  H    3.312479   6.578001   7.496326   7.206917   8.754917
    40  H    4.185518   6.882001   7.583242   7.588192   8.762092
    41  C    5.995449   3.147647   3.528411   3.526350   4.162179
    42  H    6.242787   2.959777   2.879543   3.549160   3.396878
    43  H    6.560295   2.963941   3.557035   2.880651   3.995286
    44  H    6.621399   4.245796   4.538359   4.537231   5.052457
    45  C    3.143658   6.210670   6.968816   6.973400   8.218093
    46  H    3.312481   6.578000   7.496326   7.206916   8.754913
    47  H    2.626785   6.574471   7.198269   7.497383   8.497249
    48  H    4.185519   6.882001   7.583242   7.588191   8.762087
                   21         22         23         24         25
    21  H    0.000000
    22  C    3.911431   0.000000
    23  H    4.330381   2.137126   0.000000
    24  C    3.423356   1.434191   3.421605   0.000000
    25  H    2.487929   3.456447   4.999514   2.178788   0.000000
    26  H    5.003045   1.091836   2.485281   2.181811   4.348254
    27  N    4.524044   2.404506   4.536049   1.328630   2.623711
    28  H    5.424115   2.601789   4.685199   2.040525   3.640661
    29  H    4.669959   3.352106   5.449167   2.060428   2.373021
    30  O    5.218363   4.990129   7.004937   3.591121   2.740723
    31  H    5.202572   5.406720   7.342224   4.001077   2.840078
    32  H    5.202561   5.406706   7.342206   4.001067   2.840078
    33  C    3.842743   4.161391   3.838503   4.457124   4.857049
    34  H    4.156591   3.400529   3.093134   3.932999   4.820120
    35  H    3.096606   3.987820   4.147513   3.926943   3.936950
    36  H    4.784278   5.052243   4.781663   5.301098   5.640578
    37  C    6.722804   8.222763   6.729197   8.807177   8.919777
    38  H    6.797190   8.755796   7.345133   9.229621   9.119568
    39  H    7.341998   8.506166   6.807782   9.233676   9.535209
    40  H    7.349436   8.767118   7.356601   9.325530   9.429570
    41  C    3.842745   4.161383   3.838504   4.457109   4.857040
    42  H    3.096609   3.987815   4.147517   3.926932   3.936942
    43  H    4.156591   3.400519   3.093135   3.932983   4.820109
    44  H    4.784282   5.052234   4.781664   5.301083   5.640569
    45  C    6.722806   8.222759   6.729197   8.807170   8.919772
    46  H    7.342000   8.506162   6.807782   9.233671   9.535205
    47  H    6.797192   8.755794   7.345133   9.229616   9.119565
    48  H    7.349439   8.767113   7.356602   9.325522   9.429565
                   26         27         28         29         30
    26  H    0.000000
    27  N    2.650546   0.000000
    28  H    2.405982   1.018605   0.000000
    29  H    3.685614   1.037137   1.772920   0.000000
    30  O    5.429400   2.792918   3.456777   1.759742   0.000000
    31  H    5.920845   3.359242   4.073907   2.386396   0.971248
    32  H    5.920832   3.359237   4.073901   2.386394   0.971248
    33  C    4.854534   5.483308   5.980910   5.987256   7.000062
    34  H    3.937426   4.914937   5.263704   5.561318   6.791086
    35  H    4.811994   4.903761   5.539687   5.257045   6.092597
    36  H    5.639075   6.193311   6.639635   6.645113   7.572159
    37  C    8.923544  10.070070  10.606013  10.606227  11.526916
    38  H    9.535500  10.506881  11.116252  10.974327  11.777313
    39  H    9.127322  10.513520  10.982862  11.124542  12.154344
    40  H    9.434135  10.540009  11.058449  11.058274  11.950257
    41  C    4.854523   5.483286   5.980887   5.987226   7.000010
    42  H    4.811988   4.903742   5.539668   5.257017   6.092546
    43  H    3.937414   4.914914   5.263679   5.561287   6.791037
    44  H    5.639063   6.193286   6.639607   6.645078   7.572096
    45  C    8.923539  10.070060  10.606001  10.606211  11.526888
    46  H    9.127317  10.513511  10.982852  11.124529  12.154320
    47  H    9.535496  10.506872  11.116242  10.974314  11.777289
    48  H    9.434128  10.539995  11.058433  11.058254  11.950219
                   31         32         33         34         35
    31  H    0.000000
    32  H    1.533950   0.000000
    33  C    6.811061   7.482535   0.000000
    34  H    6.721502   7.336382   1.103253   0.000000
    35  H    5.842833   6.540526   1.103240   1.769212   0.000000
    36  H    7.282226   8.124500   1.101570   1.772257   1.772283
    37  C   11.360473  11.748538   5.137369   5.783264   5.783302
    38  H   11.590152  11.919589   5.760276   6.493223   6.247841
    39  H   12.057792  12.375180   5.761118   6.248738   6.494200
    40  H   11.716924  12.231591   5.315945   6.010167   6.009881
    41  C    7.482498   6.810988   6.257048   6.039615   6.038196
    42  H    6.540486   5.842762   6.038198   5.905111   5.632478
    43  H    7.336348   6.721432   6.039614   5.635210   5.905107
    44  H    8.124451   7.282141   7.358455   7.128371   7.126755
    45  C   11.748529  11.360421   7.935652   8.148163   8.147210
    46  H   12.375177  12.057744   8.051370   8.218087   8.405417
    47  H   11.919585  11.590105   8.048289   8.403346   8.214377
    48  H   12.231572  11.716862   8.862143   9.022398   9.020990
                   36         37         38         39         40
    36  H    0.000000
    37  C    5.276984   0.000000
    38  H    5.957314   1.103062   0.000000
    39  H    5.957777   1.103008   1.767549   0.000000
    40  H    5.224747   1.099764   1.783733   1.783608   0.000000
    41  C    7.358454   7.935653   8.048289   8.051370   8.862143
    42  H    7.126756   8.147210   8.214377   8.405417   9.020990
    43  H    7.128369   8.148163   8.403346   8.218087   9.022397
    44  H    8.459803   8.792443   8.843432   8.846794   9.760965
    45  C    8.792442   5.846529   5.544190   5.547541   6.941835
    46  H    8.846794   5.547543   5.352813   5.055751   6.618654
    47  H    8.843432   5.544190   5.049372   5.352812   6.614814
    48  H    9.760965   6.941836   6.614815   6.618654   8.035467
                   41         42         43         44         45
    41  C    0.000000
    42  H    1.103240   0.000000
    43  H    1.103253   1.769213   0.000000
    44  H    1.101571   1.772284   1.772257   0.000000
    45  C    5.137370   5.783301   5.783265   5.276984   0.000000
    46  H    5.761118   6.494199   6.248739   5.957777   1.103008
    47  H    5.760277   6.247840   6.493224   5.957315   1.103062
    48  H    5.315946   6.009880   6.010168   5.224747   1.099765
                   46         47         48
    46  H    0.000000
    47  H    1.767550   0.000000
    48  H    1.783608   1.783734   0.000000
 Stoichiometry    C19H22BF2N3O
 Framework group  C1[X(C19H22BF2N3O)]
 Deg. of freedom   138
 Full point group                 C1      NOp   1
 Largest Abelian subgroup         C1      NOp   1
 Largest concise Abelian subgroup C1      NOp   1
                         Standard orientation:                         
 ---------------------------------------------------------------------
 Center     Atomic      Atomic             Coordinates (Angstroms)
 Number     Number       Type             X           Y           Z
 ---------------------------------------------------------------------
      1          6           0       -0.766024   -1.238287   -0.069486
      2          6           0       -0.766013    1.238284   -0.069489
      3          6           0       -0.060193   -0.000005   -0.138718
      4          6           0       -0.321959   -2.590438   -0.113804
      5          6           0       -1.487228   -3.387875    0.001472
      6          6           0       -2.593685   -2.549645    0.111514
      7          1           0       -1.519180   -4.477913    0.004465
      8          6           0       -2.593662    2.549659    0.111506
      9          6           0       -0.321935    2.590431   -0.113810
     10          6           0       -1.487198    3.387878    0.001463
     11          1           0       -1.519139    4.477917    0.004452
     12          7           0       -2.155738   -1.245179    0.067950
     13          7           0       -2.155726    1.245188    0.067947
     14          5           0       -3.047183    0.000009    0.159849
     15          9           0       -4.006927    0.000012   -0.888189
     16          9           0       -3.772786    0.000014    1.382158
     17          6           0        1.418644   -0.000011   -0.282082
     18          6           0        2.262037   -0.000013    0.865449
     19          6           0        2.027394   -0.000015   -1.570456
     20          6           0        3.630300   -0.000014    0.747093
     21          1           0        1.804081   -0.000012    1.856076
     22          6           0        3.393234   -0.000017   -1.717981
     23          1           0        1.386908   -0.000015   -2.454164
     24          6           0        4.233565   -0.000015   -0.555764
     25          1           0        4.281022   -0.000015    1.622507
     26          1           0        3.859471   -0.000018   -2.705265
     27          7           0        5.557286   -0.000012   -0.669874
     28          1           0        5.991927   -0.000012   -1.591092
     29          1           0        6.160507   -0.000004    0.173795
     30          8           0        7.020375    0.000023    1.709151
     31          1           0        6.930779   -0.766947    2.298263
     32          1           0        6.930758    0.767003    2.298246
     33          6           0        1.073466   -3.128534   -0.252295
     34          1           0        1.563940   -2.817619   -1.190343
     35          1           0        1.739176   -2.816250    0.570169
     36          1           0        1.053033   -4.229911   -0.249440
     37          6           0       -4.034587   -2.923251    0.255850
     38          1           0       -4.471294   -2.524669    1.187067
     39          1           0       -4.647343   -2.527860   -0.571690
     40          1           0       -4.141650   -4.017719    0.268460
     41          6           0        1.073495    3.128514   -0.252303
     42          1           0        1.739200    2.816228    0.570164
     43          1           0        1.563967    2.817591   -1.190349
     44          1           0        1.053071    4.229892   -0.249453
     45          6           0       -4.034561    2.923278    0.255841
     46          1           0       -4.647320    2.527891   -0.571699
     47          1           0       -4.471272    2.524703    1.187059
     48          1           0       -4.141614    4.017748    0.268447
 ---------------------------------------------------------------------
 Rotational constants (GHZ):           0.3336231           0.1294933           0.1021120
 Standard basis: def2SVP (5D, 7F)
 There are   500 symmetry adapted cartesian basis functions of A   symmetry.
 There are   474 symmetry adapted basis functions of A   symmetry.
   474 basis functions,   804 primitive gaussians,   500 cartesian basis functions
    94 alpha electrons       94 beta electrons
       nuclear repulsion energy      2355.1372969602 Hartrees.
 NAtoms=   48 NActive=   48 NUniq=   48 SFac= 1.00D+00 NAtFMM=   60 NAOKFM=F Big=F
 Integral buffers will be    131072 words long.
 Regular integral format.
 Two-electron integral symmetry is turned on.
 ------------------------------------------------------------------------------
 Polarizable Continuum Model (PCM)
 =================================
 Model                : PCM.
 Atomic radii         : SMD-Coulomb.
 Polarization charges : Total charges.
 Charge compensation  : None.
 Solution method      : On-the-fly selection.
 Cavity type          : VdW (van der Waals Surface) (Alpha=1.000).
 Cavity algorithm     : GePol (No added spheres)
                        Default sphere list used, NSphG=   48.
                        Lebedev-Laikov grids with approx.  5.0 points / Ang**2.
                        Smoothing algorithm: York/Karplus (Gamma=1.0000).
                        Polarization charges: spherical gaussians, with
                                              point-specific exponents (IZeta= 3).
                        Self-potential: point-specific (ISelfS= 7).
                        Self-field    : sphere-specific E.n sum rule (ISelfD= 2).
 1st derivatives      : Analytical E(r).r(x)/FMM algorithm (CHGder, D1EAlg=3).
                        Cavity 1st derivative terms included.
 Solvent              : Ethanol, Eps=  24.852000 Eps(inf)=   1.852593
 ------------------------------------------------------------------------------
 ------------------------------------------------------------------------------
 Atomic radii for non-electrostatic terms: SMD-CDS.
 ------------------------------------------------------------------------------
 Nuclear repulsion after PCM non-electrostatic terms =     2355.1353341194 Hartrees.
 One-electron integrals computed using PRISM.
   1 Symmetry operations used in ECPInt.
 ECPInt:  NShTT=   24753 NPrTT=   89657 LenC2=   21404 LenP2D=   52442.
 LDataN:  DoStor=T MaxTD1= 4 Len=   56
 NBasis=   474 RedAO= T EigKep=  2.65D-04  NBF=   474
 NBsUse=   474 1.00D-06 EigRej= -1.00D+00 NBFU=   474
 Initial guess from the checkpoint file:  "06BDP-NH2__m062x_def2SVP_dmso.chk"
 B after Tr=     0.000000   -0.000000    0.000000
         Rot=    1.000000   -0.000000   -0.000000   -0.000000 Ang=   0.00 deg.
 Requested convergence on RMS density matrix=1.00D-08 within 128 cycles.
 Requested convergence on MAX density matrix=1.00D-06.
 Requested convergence on             energy=1.00D-06.
 No special actions if energy rises.
 Inv3:  Mode=1 IEnd=    36960300.
 Iteration    1 A*A^-1 deviation from unit magnitude is 6.66D-15 for   3506.
 Iteration    1 A*A^-1 deviation from orthogonality  is 2.97D-15 for   2359    340.
 Iteration    1 A^-1*A deviation from unit magnitude is 6.44D-15 for   3506.
 Iteration    1 A^-1*A deviation from orthogonality  is 1.39D-14 for   1675   1627.
 Error on total polarization charges =  0.04807
 SCF Done:  E(RM062X) =  -1200.16163792     A.U. after    1 cycles
            NFock=  1  Conv=0.47D-08     -V/T= 2.0105
 SMD-CDS (non-electrostatic) energy       (kcal/mol) =      -1.23
 (included in total energy above)
 DoSCS=F DFT=T ScalE2(SS,OS)=  1.000000  1.000000
 ExpMin= 8.36D-02 ExpMax= 2.89D+03 ExpMxC= 4.35D+02 IAcc=3 IRadAn=         5 AccDes= 0.00D+00
 HarFok:  IExCor=  205 AccDes= 0.00D+00 IRadAn=         5 IDoV=-2 UseB2=F ITyADJ=14
 ICtDFT= 12500011 ScaDFX=  1.000000  1.000000  1.000000  1.000000
 GSVD:  LWork=        -884 too small for GESVD, short by        3770 words or        3770 for optimal perf.
 Range of M.O.s used for correlation:    27   474
 NBasis=   474 NAE=    94 NBE=    94 NFC=    26 NFV=     0
 NROrb=    448 NOA=    68 NOB=    68 NVA=   380 NVB=   380

 **** Warning!!: The largest alpha MO coefficient is  0.13586069D+02

 NEqPCM:  Using non-equilibrium solvation (IEInf=1, Eps=  24.8520, EpsInf=   1.8526)
 Inv3:  Mode=1 IEnd=    36960300.
 Iteration    1 A*A^-1 deviation from unit magnitude is 7.55D-15 for   3510.
 Iteration    1 A*A^-1 deviation from orthogonality  is 2.01D-15 for   2576   2514.
 Iteration    1 A^-1*A deviation from unit magnitude is 7.77D-15 for   3510.
 Iteration    1 A^-1*A deviation from orthogonality  is 3.90D-14 for   1675   1627.
 Orbital symmetries:
       Occupied  (A) (A) (A) (A) (A) (A) (A) (A) (A) (A) (A) (A)
                 (A) (A) (A) (A) (A) (A) (A) (A) (A) (A) (A) (A)
                 (A) (A) (A) (A) (A) (A) (A) (A) (A) (A) (A) (A)
                 (A) (A) (A) (A) (A) (A) (A) (A) (A) (A) (A) (A)
                 (A) (A) (A) (A) (A) (A) (A) (A) (A) (A) (A) (A)
                 (A) (A) (A) (A) (A) (A) (A) (A) (A) (A) (A) (A)
                 (A) (A) (A) (A) (A) (A) (A) (A) (A) (A) (A) (A)
                 (A) (A) (A) (A) (A) (A) (A) (A) (A) (A)
       Virtual   (A) (A) (A) (A) (A) (A) (A) (A) (A) (A) (A) (A)
                 (A) (A) (A) (A) (A) (A) (A) (A) (A) (A) (A) (A)
                 (A) (A) (A) (A) (A) (A) (A) (A) (A) (A) (A) (A)
                 (A) (A) (A) (A) (A) (A) (A) (A) (A) (A) (A) (A)
                 (A) (A) (A) (A) (A) (A) (A) (A) (A) (A) (A) (A)
                 (A) (A) (A) (A) (A) (A) (A) (A) (A) (A) (A) (A)
                 (A) (A) (A) (A) (A) (A) (A) (A) (A) (A) (A) (A)
                 (A) (A) (A) (A) (A) (A) (A) (A) (A) (A) (A) (A)
                 (A) (A) (A) (A) (A) (A) (A) (A) (A) (A) (A) (A)
                 (A) (A) (A) (A) (A) (A) (A) (A) (A) (A) (A) (A)
                 (A) (A) (A) (A) (A) (A) (A) (A) (A) (A) (A) (A)
                 (A) (A) (A) (A) (A) (A) (A) (A) (A) (A) (A) (A)
                 (A) (A) (A) (A) (A) (A) (A) (A) (A) (A) (A) (A)
                 (A) (A) (A) (A) (A) (A) (A) (A) (A) (A) (A) (A)
                 (A) (A) (A) (A) (A) (A) (A) (A) (A) (A) (A) (A)
                 (A) (A) (A) (A) (A) (A) (A) (A) (A) (A) (A) (A)
                 (A) (A) (A) (A) (A) (A) (A) (A) (A) (A) (A) (A)
                 (A) (A) (A) (A) (A) (A) (A) (A) (A) (A) (A) (A)
                 (A) (A) (A) (A) (A) (A) (A) (A) (A) (A) (A) (A)
                 (A) (A) (A) (A) (A) (A) (A) (A) (A) (A) (A) (A)
                 (A) (A) (A) (A) (A) (A) (A) (A) (A) (A) (A) (A)
                 (A) (A) (A) (A) (A) (A) (A) (A) (A) (A) (A) (A)
                 (A) (A) (A) (A) (A) (A) (A) (A) (A) (A) (A) (A)
                 (A) (A) (A) (A) (A) (A) (A) (A) (A) (A) (A) (A)
                 (A) (A) (A) (A) (A) (A) (A) (A) (A) (A) (A) (A)
                 (A) (A) (A) (A) (A) (A) (A) (A) (A) (A) (A) (A)
                 (A) (A) (A) (A) (A) (A) (A) (A) (A) (A) (A) (A)
                 (A) (A) (A) (A) (A) (A) (A) (A) (A) (A) (A) (A)
                 (A) (A) (A) (A) (A) (A) (A) (A) (A) (A) (A) (A)
                 (A) (A) (A) (A) (A) (A) (A) (A) (A) (A) (A) (A)
                 (A) (A) (A) (A) (A) (A) (A) (A) (A) (A) (A) (A)
                 (A) (A) (A) (A) (A) (A) (A) (A)
    20 initial guesses have been made.
 Convergence on wavefunction:    0.000001000000000
 Iteration     1 Dimension    20 NMult     0 NNew     20
 CISAX will form    20 AO SS matrices at one time.
 Iteration     2 Dimension    30 NMult    20 NNew     10
 Iteration     3 Dimension    40 NMult    30 NNew     10
 Iteration     4 Dimension    50 NMult    40 NNew     10
 Iteration     5 Dimension    60 NMult    50 NNew     10
 Iteration     6 Dimension    70 NMult    60 NNew     10
 Iteration     7 Dimension    80 NMult    70 NNew     10
 Iteration     8 Dimension    90 NMult    80 NNew     10
 Iteration     9 Dimension    98 NMult    90 NNew      8
 Iteration    10 Dimension   102 NMult    98 NNew      4
 Iteration    11 Dimension   104 NMult   102 NNew      2
 PCM Corrected Linear-Response:
 The state of interest is root number   1
 Excitation energy =    2.2965 eV, Total energy =  -1200.07724385    
 Recompute the excitation energies using the linear response reaction field.
 Convergence on wavefunction:    0.000001000000000
 Iteration     1 Dimension     5 NMult     0 NNew      5
 Iteration     2 Dimension    15 NMult     5 NNew     10
 Iteration     3 Dimension    25 NMult    15 NNew     10
 Iteration     4 Dimension    35 NMult    25 NNew     10
 Iteration     5 Dimension    45 NMult    35 NNew     10
 Iteration     6 Dimension    55 NMult    45 NNew     10
 Iteration     7 Dimension    65 NMult    55 NNew     10
 Iteration     8 Dimension    75 NMult    65 NNew     10
 Iteration     9 Dimension    81 NMult    75 NNew      6
 Iteration    10 Dimension    83 NMult    81 NNew      2
 Iteration    11 Dimension    85 NMult    83 NNew      2
 Iteration    12 Dimension    87 NMult    85 NNew      2
 ***********************************************************************
 Excited states from <AA,BB:AA,BB> singles matrix:
 ***********************************************************************
 
 Ground to excited state transition densities written to RWF  633
 Ground to excited state transition electric dipole moments (Au):
       state          X           Y           Z        Dip. S.      Osc.
         1         0.0000      0.0023      0.0000      0.0000      0.0000
         2        -0.0000     -3.0704      0.0000      9.4271      0.6570
         3         0.0000      0.6587     -0.0000      0.4338      0.0387
         4         0.6892     -0.0000     -0.0691      0.4797      0.0465
         5         0.0000     -0.1373     -0.0000      0.0188      0.0021
 Ground to excited state transition velocity dipole moments (Au):
       state          X           Y           Z        Dip. S.      Osc.
         1        -0.0000     -0.0003      0.0000      0.0000      0.0000
         2         0.0000      0.3228     -0.0000      0.1042      0.6646
         3        -0.0000     -0.0921      0.0000      0.0085      0.0423
         4        -0.1024      0.0000      0.0103      0.0106      0.0485
         5        -0.0000      0.0264      0.0000      0.0007      0.0028
 Ground to excited state transition magnetic dipole moments (Au):
       state          X           Y           Z
         1         0.1383     -0.0000     -0.0124
         2         0.1293     -0.0000      0.3936
         3         0.1422      0.0000      1.6986
         4        -0.0000      0.0267     -0.0000
         5         0.0126     -0.0000      0.0634
 Ground to excited state transition velocity quadrupole moments (Au):
       state          XX          YY          ZZ          XY          XZ          YZ
         1        -0.0000     -0.0000      0.0000      0.0001     -0.0000      0.0038
         2        -0.0000      0.0000     -0.0000     -1.0900      0.0000      0.0172
         3        -0.0000      0.0000      0.0000     -0.3343      0.0000      0.0597
         4         0.5210     -0.4086     -0.0021     -0.0000     -0.0223     -0.0000
         5        -0.0000      0.0000     -0.0000     -0.0084     -0.0000     -0.0065
 <0|del|b> * <b|rxdel|0> + <0|del|b> * <b|delr+rdel|0>
 Rotatory Strengths (R) in cgs (10**-40 erg-esu-cm/Gauss)
       state          XX          YY          ZZ    R(velocity)    E-M Angle
         1        -0.0000     -0.0000     -0.0000     -0.0000       90.00
         2        -0.0010     -0.0015      0.0021     -0.0001       90.00
         3        -0.0000      0.0002     -0.0006     -0.0001       90.00
         4        -0.0001      0.0001      0.0002      0.0001       90.00
         5        -0.0000     -0.0000     -0.0000     -0.0000       90.00
 1/2[<0|r|b>*<b|rxdel|0> + (<0|rxdel|b>*<b|r|0>)*]
 Rotatory Strengths (R) in cgs (10**-40 erg-esu-cm/Gauss)
       state          XX          YY          ZZ     R(length)
         1        -0.0001      0.0000      0.0000     -0.0000
         2         0.0014     -0.0006     -0.0013     -0.0001
         3        -0.0002     -0.0007      0.0006     -0.0001
         4         0.0003      0.0002     -0.0003      0.0001
         5        -0.0000     -0.0000      0.0000     -0.0000
  1/2[<0|del|b>*<b|r|0> + (<0|r|b>*<b|del|0>)*] (Au)
       state          X           Y           Z        Dip. S.   Osc.(frdel)
         1        -0.0000     -0.0000      0.0000      0.0000      0.0000
         2        -0.0000     -0.9911     -0.0000      0.9911      0.6608
         3        -0.0000     -0.0607     -0.0000      0.0607      0.0404
         4        -0.0706     -0.0000     -0.0007      0.0713      0.0475
         5        -0.0000     -0.0036     -0.0000      0.0036      0.0024

 Excitation energies and oscillator strengths:
 
 Excited State   1:      Singlet-A      2.2964 eV  539.91 nm  f=0.0000  <S**2>=0.000
      88 -> 95        -0.10503
      94 -> 95         0.69589
 This state for optimization and/or second-order correction.
 Total Energy, E(TD-HF/TD-DFT) =  -1200.07724763    
 Copying the excited state density for this state as the 1-particle RhoCI density.
 
 Excited State   2:      Singlet-A      2.8445 eV  435.88 nm  f=0.6570  <S**2>=0.000
      93 -> 95         0.70060
 
 Excited State   3:      Singlet-A      3.6394 eV  340.67 nm  f=0.0387  <S**2>=0.000
      92 -> 95         0.69306
 
 Excited State   4:      Singlet-A      3.9603 eV  313.07 nm  f=0.0465  <S**2>=0.000
      91 -> 95         0.70346
 
 Excited State   5:      Singlet-A      4.4799 eV  276.76 nm  f=0.0021  <S**2>=0.000
      90 -> 95         0.69820
 SavETr:  write IOETrn=   770 NScale= 10 NData=  16 NLR=1 NState=    5 LETran=     100.
 NEqPCM:  Using equilibrium solvation (IEInf=0, Eps=  24.8520, EpsInf=   1.8526)
          Differentiating once with respect to electric field.
                with respect to dipole field.
          Electric field/nuclear overlap derivatives assumed to be zero.
          There are     1 degrees of freedom in the 1st order CPHF.  IDoFFX=0 NUNeed=     1.
 LinEq1:  Iter=  0 NonCon=     1 RMS=3.71D-03 Max=1.46D-01 NDo=     1
 AX will form     1 AO Fock derivatives at one time.
 LinEq1:  Iter=  1 NonCon=     1 RMS=1.27D-03 Max=1.23D-01 NDo=     1
 LinEq1:  Iter=  2 NonCon=     1 RMS=8.28D-04 Max=9.03D-02 NDo=     1
 LinEq1:  Iter=  3 NonCon=     1 RMS=3.33D-04 Max=2.83D-02 NDo=     1
 LinEq1:  Iter=  4 NonCon=     1 RMS=1.66D-04 Max=1.12D-02 NDo=     1
 LinEq1:  Iter=  5 NonCon=     1 RMS=6.99D-05 Max=3.56D-03 NDo=     1
 LinEq1:  Iter=  6 NonCon=     1 RMS=2.83D-05 Max=1.82D-03 NDo=     1
 LinEq1:  Iter=  7 NonCon=     1 RMS=1.26D-05 Max=4.66D-04 NDo=     1
 LinEq1:  Iter=  8 NonCon=     1 RMS=4.79D-06 Max=3.30D-04 NDo=     1
 LinEq1:  Iter=  9 NonCon=     1 RMS=2.11D-06 Max=9.98D-05 NDo=     1
 LinEq1:  Iter= 10 NonCon=     1 RMS=1.06D-06 Max=5.90D-05 NDo=     1
 LinEq1:  Iter= 11 NonCon=     1 RMS=4.93D-07 Max=1.79D-05 NDo=     1
 LinEq1:  Iter= 12 NonCon=     1 RMS=2.19D-07 Max=1.56D-05 NDo=     1
 LinEq1:  Iter= 13 NonCon=     1 RMS=9.10D-08 Max=4.41D-06 NDo=     1
 LinEq1:  Iter= 14 NonCon=     1 RMS=4.75D-08 Max=3.95D-06 NDo=     1
 LinEq1:  Iter= 15 NonCon=     1 RMS=1.67D-08 Max=1.06D-06 NDo=     1
 LinEq1:  Iter= 16 NonCon=     1 RMS=6.25D-09 Max=2.13D-07 NDo=     1
 LinEq1:  Iter= 17 NonCon=     1 RMS=2.27D-09 Max=8.56D-08 NDo=     1
 LinEq1:  Iter= 18 NonCon=     1 RMS=1.19D-09 Max=5.56D-08 NDo=     1
 LinEq1:  Iter= 19 NonCon=     1 RMS=3.70D-10 Max=1.80D-08 NDo=     1
 LinEq1:  Iter= 20 NonCon=     1 RMS=1.88D-10 Max=7.37D-09 NDo=     1
 LinEq1:  Iter= 21 NonCon=     1 RMS=6.97D-11 Max=4.17D-09 NDo=     1
 LinEq1:  Iter= 22 NonCon=     1 RMS=1.86D-11 Max=1.19D-09 NDo=     1
 LinEq1:  Iter= 23 NonCon=     0 RMS=9.17D-12 Max=4.79D-10 NDo=     1
 Linear equations converged to 1.000D-10 1.000D-09 after    23 iterations.
 PCM Corrected Linear-Response - Non-equilibrium solvation:
 Corrected transition energy               =    1.8880          eV
 Total energy after correction             = -1200.09225425     a.u.
 End of Minotr F.D. properties file   721 does not exist.
 End of Minotr F.D. properties file   722 does not exist.
 End of Minotr F.D. properties file   788 does not exist.

 **********************************************************************

            Population analysis using the CI density.

 **********************************************************************

 Orbital symmetries:
       Occupied  (A) (A) (A) (A) (A) (A) (A) (A) (A) (A) (A) (A)
                 (A) (A) (A) (A) (A) (A) (A) (A) (A) (A) (A) (A)
                 (A) (A) (A) (A) (A) (A) (A) (A) (A) (A) (A) (A)
                 (A) (A) (A) (A) (A) (A) (A) (A) (A) (A) (A) (A)
                 (A) (A) (A) (A) (A) (A) (A) (A) (A) (A) (A) (A)
                 (A) (A) (A) (A) (A) (A) (A) (A) (A) (A) (A) (A)
                 (A) (A) (A) (A) (A) (A) (A) (A) (A) (A) (A) (A)
                 (A) (A) (A) (A) (A) (A) (A) (A) (A) (A)
       Virtual   (A) (A) (A) (A) (A) (A) (A) (A) (A) (A) (A) (A)
                 (A) (A) (A) (A) (A) (A) (A) (A) (A) (A) (A) (A)
                 (A) (A) (A) (A) (A) (A) (A) (A) (A) (A) (A) (A)
                 (A) (A) (A) (A) (A) (A) (A) (A) (A) (A) (A) (A)
                 (A) (A) (A) (A) (A) (A) (A) (A) (A) (A) (A) (A)
                 (A) (A) (A) (A) (A) (A) (A) (A) (A) (A) (A) (A)
                 (A) (A) (A) (A) (A) (A) (A) (A) (A) (A) (A) (A)
                 (A) (A) (A) (A) (A) (A) (A) (A) (A) (A) (A) (A)
                 (A) (A) (A) (A) (A) (A) (A) (A) (A) (A) (A) (A)
                 (A) (A) (A) (A) (A) (A) (A) (A) (A) (A) (A) (A)
                 (A) (A) (A) (A) (A) (A) (A) (A) (A) (A) (A) (A)
                 (A) (A) (A) (A) (A) (A) (A) (A) (A) (A) (A) (A)
                 (A) (A) (A) (A) (A) (A) (A) (A) (A) (A) (A) (A)
                 (A) (A) (A) (A) (A) (A) (A) (A) (A) (A) (A) (A)
                 (A) (A) (A) (A) (A) (A) (A) (A) (A) (A) (A) (A)
                 (A) (A) (A) (A) (A) (A) (A) (A) (A) (A) (A) (A)
                 (A) (A) (A) (A) (A) (A) (A) (A) (A) (A) (A) (A)
                 (A) (A) (A) (A) (A) (A) (A) (A) (A) (A) (A) (A)
                 (A) (A) (A) (A) (A) (A) (A) (A) (A) (A) (A) (A)
                 (A) (A) (A) (A) (A) (A) (A) (A) (A) (A) (A) (A)
                 (A) (A) (A) (A) (A) (A) (A) (A) (A) (A) (A) (A)
                 (A) (A) (A) (A) (A) (A) (A) (A) (A) (A) (A) (A)
                 (A) (A) (A) (A) (A) (A) (A) (A) (A) (A) (A) (A)
                 (A) (A) (A) (A) (A) (A) (A) (A) (A) (A) (A) (A)
                 (A) (A) (A) (A) (A) (A) (A) (A) (A) (A) (A) (A)
                 (A) (A) (A) (A) (A) (A) (A) (A) (A) (A) (A) (A)
                 (A) (A) (A) (A) (A) (A) (A) (A) (A) (A) (A) (A)
                 (A) (A) (A) (A) (A) (A) (A) (A) (A) (A) (A) (A)
                 (A) (A) (A) (A) (A) (A) (A) (A) (A) (A) (A) (A)
                 (A) (A) (A) (A) (A) (A) (A) (A) (A) (A) (A) (A)
                 (A) (A) (A) (A) (A) (A) (A) (A) (A) (A) (A) (A)
                 (A) (A) (A) (A) (A) (A) (A) (A)
 The electronic state is 1-A.
 Alpha  occ. eigenvalues --  -25.19369 -25.19360 -19.63450 -14.78288 -14.78286
 Alpha  occ. eigenvalues --  -14.74789 -10.61525 -10.60650 -10.60647 -10.59895
 Alpha  occ. eigenvalues --  -10.59241 -10.59235 -10.57677 -10.57673 -10.55979
 Alpha  occ. eigenvalues --  -10.55961 -10.55754 -10.55234 -10.55234 -10.54944
 Alpha  occ. eigenvalues --  -10.54944 -10.54620 -10.54620 -10.54515 -10.54473
 Alpha  occ. eigenvalues --   -7.13170  -1.27709  -1.24217  -1.10914  -1.08421
 Alpha  occ. eigenvalues --   -1.06535  -1.01427  -0.94198  -0.89852  -0.88992
 Alpha  occ. eigenvalues --   -0.88147  -0.84980  -0.83292  -0.83232  -0.78693
 Alpha  occ. eigenvalues --   -0.78351  -0.78139  -0.74930  -0.70009  -0.68684
 Alpha  occ. eigenvalues --   -0.68321  -0.66053  -0.63294  -0.62669  -0.62061
 Alpha  occ. eigenvalues --   -0.60102  -0.59694  -0.59348  -0.58411  -0.57813
 Alpha  occ. eigenvalues --   -0.56408  -0.54938  -0.54093  -0.51788  -0.51565
 Alpha  occ. eigenvalues --   -0.50998  -0.49961  -0.49930  -0.49348  -0.48861
 Alpha  occ. eigenvalues --   -0.48473  -0.47844  -0.47710  -0.47579  -0.47270
 Alpha  occ. eigenvalues --   -0.46154  -0.46045  -0.45984  -0.45810  -0.45641
 Alpha  occ. eigenvalues --   -0.45559  -0.45303  -0.44288  -0.44025  -0.43629
 Alpha  occ. eigenvalues --   -0.43421  -0.42645  -0.42037  -0.41128  -0.40370
 Alpha  occ. eigenvalues --   -0.39738  -0.38429  -0.36639  -0.33578  -0.31361
 Alpha  occ. eigenvalues --   -0.30812  -0.29804  -0.25271  -0.23604
 Alpha virt. eigenvalues --   -0.07836   0.02676   0.04059   0.06637   0.08253
 Alpha virt. eigenvalues --    0.09198   0.10770   0.10848   0.12043   0.12660
 Alpha virt. eigenvalues --    0.13080   0.13234   0.13800   0.14121   0.14850
 Alpha virt. eigenvalues --    0.15208   0.15914   0.16893   0.17225   0.17913
 Alpha virt. eigenvalues --    0.18016   0.19327   0.20308   0.20470   0.20488
 Alpha virt. eigenvalues --    0.20752   0.20847   0.21072   0.21542   0.22624
 Alpha virt. eigenvalues --    0.22639   0.24587   0.25399   0.25920   0.26220
 Alpha virt. eigenvalues --    0.26294   0.26371   0.27782   0.28543   0.28725
 Alpha virt. eigenvalues --    0.30002   0.30123   0.31525   0.32646   0.33273
 Alpha virt. eigenvalues --    0.34346   0.35232   0.36431   0.37282   0.38375
 Alpha virt. eigenvalues --    0.38723   0.39583   0.40639   0.41762   0.42224
 Alpha virt. eigenvalues --    0.42289   0.43489   0.43512   0.44642   0.45461
 Alpha virt. eigenvalues --    0.45753   0.46678   0.47059   0.47704   0.47845
 Alpha virt. eigenvalues --    0.47968   0.48032   0.49850   0.49980   0.50603
 Alpha virt. eigenvalues --    0.51662   0.51803   0.53310   0.53488   0.54027
 Alpha virt. eigenvalues --    0.54689   0.55072   0.55184   0.56297   0.56593
 Alpha virt. eigenvalues --    0.58946   0.59366   0.60390   0.60461   0.61453
 Alpha virt. eigenvalues --    0.62117   0.62299   0.62437   0.63112   0.63880
 Alpha virt. eigenvalues --    0.65862   0.66445   0.67195   0.68036   0.68735
 Alpha virt. eigenvalues --    0.69033   0.69543   0.69863   0.70143   0.70335
 Alpha virt. eigenvalues --    0.71366   0.71509   0.71958   0.72180   0.72482
 Alpha virt. eigenvalues --    0.72537   0.73455   0.73776   0.73885   0.74331
 Alpha virt. eigenvalues --    0.74500   0.75332   0.75652   0.75935   0.76580
 Alpha virt. eigenvalues --    0.76713   0.76896   0.77478   0.77717   0.78763
 Alpha virt. eigenvalues --    0.78961   0.78988   0.79569   0.80272   0.80588
 Alpha virt. eigenvalues --    0.81209   0.82005   0.82233   0.82319   0.83511
 Alpha virt. eigenvalues --    0.84464   0.84639   0.84884   0.87090   0.88325
 Alpha virt. eigenvalues --    0.89356   0.89619   0.90121   0.91026   0.95005
 Alpha virt. eigenvalues --    0.95485   0.95823   0.96044   0.97378   0.97733
 Alpha virt. eigenvalues --    1.00457   1.01235   1.03965   1.04400   1.04929
 Alpha virt. eigenvalues --    1.06301   1.08887   1.09263   1.10451   1.11825
 Alpha virt. eigenvalues --    1.12008   1.12242   1.12790   1.15817   1.16687
 Alpha virt. eigenvalues --    1.17871   1.20524   1.21004   1.21450   1.22103
 Alpha virt. eigenvalues --    1.23186   1.23921   1.25461   1.27324   1.28359
 Alpha virt. eigenvalues --    1.28638   1.29237   1.29686   1.31460   1.31485
 Alpha virt. eigenvalues --    1.33090   1.33275   1.33986   1.35341   1.35737
 Alpha virt. eigenvalues --    1.37285   1.37755   1.37791   1.38331   1.39001
 Alpha virt. eigenvalues --    1.39642   1.41249   1.41264   1.43106   1.44380
 Alpha virt. eigenvalues --    1.45483   1.45746   1.47142   1.48264   1.51119
 Alpha virt. eigenvalues --    1.52323   1.53876   1.56034   1.56211   1.56982
 Alpha virt. eigenvalues --    1.58404   1.58932   1.59418   1.60414   1.60611
 Alpha virt. eigenvalues --    1.60943   1.62103   1.62241   1.63406   1.64337
 Alpha virt. eigenvalues --    1.64639   1.67973   1.70594   1.70660   1.70772
 Alpha virt. eigenvalues --    1.72219   1.72277   1.72602   1.72641   1.73667
 Alpha virt. eigenvalues --    1.75344   1.75421   1.77231   1.77768   1.78394
 Alpha virt. eigenvalues --    1.78692   1.78693   1.80084   1.80555   1.81432
 Alpha virt. eigenvalues --    1.81521   1.82071   1.82254   1.82343   1.82537
 Alpha virt. eigenvalues --    1.83819   1.84548   1.85206   1.85258   1.85307
 Alpha virt. eigenvalues --    1.85943   1.86425   1.86803   1.87296   1.88410
 Alpha virt. eigenvalues --    1.89843   1.90219   1.90342   1.90890   1.91068
 Alpha virt. eigenvalues --    1.92209   1.93446   1.94981   1.95773   1.97210
 Alpha virt. eigenvalues --    1.97434   1.98606   1.99575   2.00072   2.00875
 Alpha virt. eigenvalues --    2.01797   2.01964   2.02434   2.06174   2.06763
 Alpha virt. eigenvalues --    2.07688   2.07832   2.07943   2.09341   2.10956
 Alpha virt. eigenvalues --    2.11581   2.11898   2.14484   2.14738   2.15708
 Alpha virt. eigenvalues --    2.16685   2.16930   2.19084   2.19556   2.20791
 Alpha virt. eigenvalues --    2.22185   2.23168   2.24039   2.24515   2.25455
 Alpha virt. eigenvalues --    2.25636   2.26245   2.26362   2.27681   2.28006
 Alpha virt. eigenvalues --    2.28319   2.29285   2.29621   2.30462   2.30594
 Alpha virt. eigenvalues --    2.32347   2.36891   2.37694   2.38831   2.39663
 Alpha virt. eigenvalues --    2.40284   2.42884   2.42931   2.44322   2.45113
 Alpha virt. eigenvalues --    2.45144   2.46241   2.46814   2.47912   2.49950
 Alpha virt. eigenvalues --    2.50778   2.51774   2.53705   2.53920   2.58893
 Alpha virt. eigenvalues --    2.59813   2.62914   2.63614   2.65041   2.65230
 Alpha virt. eigenvalues --    2.66741   2.67238   2.70440   2.70546   2.70638
 Alpha virt. eigenvalues --    2.71688   2.72165   2.72656   2.73931   2.74960
 Alpha virt. eigenvalues --    2.75002   2.75098   2.75625   2.76032   2.78801
 Alpha virt. eigenvalues --    2.80529   2.80594   2.83653   2.85261   2.92056
 Alpha virt. eigenvalues --    2.93449   2.94061   2.94229   2.95710   2.95929
 Alpha virt. eigenvalues --    2.96352   2.97358   2.97582   2.98720   2.99854
 Alpha virt. eigenvalues --    3.02518   3.04371   3.06137   3.08575   3.08940
 Alpha virt. eigenvalues --    3.09183   3.14310   3.19143   3.19238   3.19802
 Alpha virt. eigenvalues --    3.20490   3.21696   3.23391   3.23788   3.24494
 Alpha virt. eigenvalues --    3.24667   3.28030   3.29676   3.32186   3.38647
 Alpha virt. eigenvalues --    3.42955   3.50218   3.51041   3.54020   3.59563
 Alpha virt. eigenvalues --    3.61387   3.66455   3.78887   3.80882   3.84367
          Condensed to atoms (all electrons):
               1          2          3          4          5          6
     1  C    5.108514   0.041183   0.270209   0.403400  -0.030940  -0.135421
     2  C    0.041183   5.108514   0.270209   0.016498  -0.001015  -0.000532
     3  C    0.270209   0.270209   5.709550  -0.121307   0.015679   0.017542
     4  C    0.403400   0.016498  -0.121307   5.323911   0.386907  -0.024710
     5  C   -0.030940  -0.001015   0.015679   0.386907   5.133692   0.461863
     6  C   -0.135421  -0.000532   0.017542  -0.024710   0.461863   5.040370
     7  H    0.016056   0.000004  -0.000436  -0.064716   0.456342  -0.060287
     8  C   -0.000532  -0.135421   0.017542   0.000011   0.000005   0.000038
     9  C    0.016498   0.403401  -0.121306  -0.000107  -0.000000   0.000011
    10  C   -0.001015  -0.030940   0.015679  -0.000000  -0.000001   0.000005
    11  H    0.000004   0.016056  -0.000436   0.000000  -0.000000   0.000000
    12  N    0.468891  -0.004433  -0.094696  -0.098354  -0.072808   0.399847
    13  N   -0.004433   0.468891  -0.094696  -0.000071  -0.000098  -0.000199
    14  B   -0.047759  -0.047759  -0.017783   0.003090   0.004898  -0.024910
    15  F   -0.003484  -0.003484   0.001645  -0.000038  -0.000093  -0.002692
    16  F   -0.003476  -0.003476   0.001639  -0.000037  -0.000096  -0.002535
    17  C   -0.090340  -0.090340   0.418822  -0.027269   0.001612  -0.000413
    18  C   -0.003535  -0.003535  -0.095243   0.000536  -0.000073  -0.000009
    19  C   -0.003785  -0.003785  -0.094708   0.000495  -0.000071  -0.000009
    20  C    0.000770   0.000770   0.011943  -0.000210  -0.000004  -0.000000
    21  H   -0.001235  -0.001235  -0.008937   0.000042   0.000029  -0.000007
    22  C    0.000700   0.000700   0.011782  -0.000198  -0.000004  -0.000000
    23  H   -0.001267  -0.001267  -0.008888   0.000035   0.000030  -0.000007
    24  C    0.000067   0.000067   0.000752  -0.000006   0.000000   0.000000
    25  H   -0.000014  -0.000014  -0.000195   0.000005  -0.000000   0.000000
    26  H   -0.000007  -0.000007  -0.000210   0.000004  -0.000000   0.000000
    27  N    0.000000   0.000000   0.000018   0.000000   0.000000   0.000000
    28  H   -0.000000  -0.000000  -0.000000   0.000000  -0.000000   0.000000
    29  H   -0.000000  -0.000000   0.000000   0.000000  -0.000000   0.000000
    30  O   -0.000000  -0.000000   0.000000   0.000000   0.000000  -0.000000
    31  H   -0.000000   0.000000  -0.000000   0.000000   0.000000   0.000000
    32  H    0.000000  -0.000000  -0.000000   0.000000  -0.000000  -0.000000
    33  C   -0.076305   0.000092  -0.014393   0.432120  -0.084031   0.015274
    34  H   -0.003130  -0.000246  -0.000561  -0.016573   0.003882  -0.000444
    35  H   -0.003122  -0.000250  -0.000602  -0.016666   0.003912  -0.000445
    36  H    0.008674   0.000020   0.000306  -0.009389  -0.010999   0.000179
    37  C    0.010276   0.000017  -0.000293   0.012531  -0.087782   0.409435
    38  H   -0.000002  -0.000005  -0.000007  -0.000317   0.003233  -0.011141
    39  H   -0.000001  -0.000004  -0.000007  -0.000323   0.003237  -0.011145
    40  H   -0.000166   0.000001   0.000009   0.000459  -0.014034  -0.002986
    41  C    0.000092  -0.076305  -0.014393  -0.000005   0.000000  -0.000000
    42  H   -0.000250  -0.003122  -0.000602  -0.000008   0.000000  -0.000000
    43  H   -0.000246  -0.003130  -0.000561  -0.000008   0.000000  -0.000000
    44  H    0.000020   0.008674   0.000306   0.000000  -0.000000   0.000000
    45  C    0.000017   0.010276  -0.000293  -0.000002   0.000000  -0.000007
    46  H   -0.000004  -0.000001  -0.000007   0.000000   0.000000   0.000009
    47  H   -0.000005  -0.000002  -0.000007   0.000000   0.000000   0.000009
    48  H    0.000001  -0.000166   0.000009   0.000000   0.000000  -0.000000
               7          8          9         10         11         12
     1  C    0.016056  -0.000532   0.016498  -0.001015   0.000004   0.468891
     2  C    0.000004  -0.135421   0.403401  -0.030940   0.016056  -0.004433
     3  C   -0.000436   0.017542  -0.121306   0.015679  -0.000436  -0.094696
     4  C   -0.064716   0.000011  -0.000107  -0.000000   0.000000  -0.098354
     5  C    0.456342   0.000005  -0.000000  -0.000001  -0.000000  -0.072808
     6  C   -0.060287   0.000038   0.000011   0.000005   0.000000   0.399847
     7  H    0.650767   0.000000   0.000000  -0.000000  -0.000000   0.006034
     8  C    0.000000   5.040370  -0.024710   0.461863  -0.060287  -0.000199
     9  C    0.000000  -0.024710   5.323912   0.386908  -0.064716  -0.000071
    10  C   -0.000000   0.461863   0.386908   5.133691   0.456342  -0.000098
    11  H   -0.000000  -0.060287  -0.064716   0.456342   0.650767   0.000003
    12  N    0.006034  -0.000199  -0.000071  -0.000098   0.000003   6.479750
    13  N    0.000003   0.399846  -0.098354  -0.072808   0.006034  -0.049083
    14  B    0.000190  -0.024910   0.003090   0.004898   0.000190   0.323436
    15  F    0.000000  -0.002692  -0.000038  -0.000093   0.000000  -0.035977
    16  F    0.000000  -0.002535  -0.000037  -0.000096   0.000000  -0.036125
    17  C    0.000010  -0.000413  -0.027269   0.001612   0.000010   0.004182
    18  C    0.000001  -0.000009   0.000536  -0.000073   0.000001   0.000033
    19  C    0.000001  -0.000009   0.000495  -0.000071   0.000001   0.000029
    20  C    0.000000  -0.000000  -0.000210  -0.000004   0.000000   0.000003
    21  H   -0.000000  -0.000007   0.000042   0.000029  -0.000000  -0.000075
    22  C    0.000000  -0.000000  -0.000198  -0.000004   0.000000   0.000003
    23  H   -0.000000  -0.000007   0.000035   0.000030  -0.000000  -0.000074
    24  C    0.000000   0.000000  -0.000006   0.000000   0.000000  -0.000000
    25  H   -0.000000   0.000000   0.000005  -0.000000  -0.000000  -0.000000
    26  H   -0.000000   0.000000   0.000004  -0.000000  -0.000000  -0.000000
    27  N   -0.000000   0.000000   0.000000   0.000000  -0.000000   0.000000
    28  H   -0.000000   0.000000   0.000000  -0.000000  -0.000000  -0.000000
    29  H    0.000000   0.000000   0.000000  -0.000000   0.000000  -0.000000
    30  O   -0.000000  -0.000000   0.000000   0.000000  -0.000000  -0.000000
    31  H   -0.000000  -0.000000   0.000000  -0.000000   0.000000  -0.000000
    32  H    0.000000   0.000000   0.000000   0.000000  -0.000000   0.000000
    33  C   -0.010489  -0.000000  -0.000005   0.000000  -0.000000   0.004994
    34  H    0.000153  -0.000000  -0.000008   0.000000   0.000000   0.000007
    35  H    0.000154  -0.000000  -0.000008   0.000000   0.000000   0.000009
    36  H    0.004746   0.000000   0.000000  -0.000000  -0.000000  -0.000117
    37  C   -0.009524  -0.000007  -0.000002   0.000000   0.000000  -0.070749
    38  H    0.000152   0.000009   0.000000   0.000000  -0.000000  -0.003177
    39  H    0.000154   0.000009   0.000000   0.000000  -0.000000  -0.003118
    40  H    0.003627  -0.000000   0.000000   0.000000  -0.000000   0.004945
    41  C   -0.000000   0.015274   0.432120  -0.084030  -0.010489  -0.000003
    42  H    0.000000  -0.000445  -0.016666   0.003912   0.000154   0.000000
    43  H    0.000000  -0.000444  -0.016573   0.003882   0.000153   0.000000
    44  H   -0.000000   0.000179  -0.009390  -0.010999   0.004746   0.000000
    45  C    0.000000   0.409435   0.012531  -0.087782  -0.009524   0.000178
    46  H   -0.000000  -0.011145  -0.000323   0.003237   0.000154   0.000068
    47  H   -0.000000  -0.011141  -0.000317   0.003233   0.000152   0.000070
    48  H   -0.000000  -0.002986   0.000459  -0.014034   0.003627   0.000003
              13         14         15         16         17         18
     1  C   -0.004433  -0.047759  -0.003484  -0.003476  -0.090340  -0.003535
     2  C    0.468891  -0.047759  -0.003484  -0.003476  -0.090340  -0.003535
     3  C   -0.094696  -0.017783   0.001645   0.001639   0.418822  -0.095243
     4  C   -0.000071   0.003090  -0.000038  -0.000037  -0.027269   0.000536
     5  C   -0.000098   0.004898  -0.000093  -0.000096   0.001612  -0.000073
     6  C   -0.000199  -0.024910  -0.002692  -0.002535  -0.000413  -0.000009
     7  H    0.000003   0.000190   0.000000   0.000000   0.000010   0.000001
     8  C    0.399846  -0.024910  -0.002692  -0.002535  -0.000413  -0.000009
     9  C   -0.098354   0.003090  -0.000038  -0.000037  -0.027269   0.000536
    10  C   -0.072808   0.004898  -0.000093  -0.000096   0.001612  -0.000073
    11  H    0.006034   0.000190   0.000000   0.000000   0.000010   0.000001
    12  N   -0.049083   0.323436  -0.035977  -0.036125   0.004182   0.000033
    13  N    6.479750   0.323437  -0.035977  -0.036125   0.004182   0.000033
    14  B    0.323437   3.413591   0.427879   0.428188   0.002553   0.000056
    15  F   -0.035977   0.427879   8.958296  -0.027563   0.000004   0.000000
    16  F   -0.036125   0.428188  -0.027563   8.958435   0.000004  -0.000000
    17  C    0.004182   0.002553   0.000004   0.000004   5.678349   0.141102
    18  C    0.000033   0.000056   0.000000  -0.000000   0.141102   5.130385
    19  C    0.000029   0.000059  -0.000000   0.000000   0.142986   0.054804
    20  C    0.000003   0.000000  -0.000000   0.000000   0.127224   0.250567
    21  H   -0.000075  -0.000008  -0.000000   0.000000  -0.065334   0.465139
    22  C    0.000003  -0.000000   0.000000  -0.000000   0.128299  -0.116248
    23  H   -0.000074  -0.000008   0.000000  -0.000000  -0.064068   0.013250
    24  C   -0.000000   0.000000   0.000000   0.000000  -0.206762   0.154016
    25  H   -0.000000  -0.000000   0.000000  -0.000000   0.016192  -0.044301
    26  H   -0.000000  -0.000000  -0.000000   0.000000   0.014829  -0.003045
    27  N    0.000000   0.000000   0.000000   0.000000  -0.000545   0.006108
    28  H   -0.000000  -0.000000  -0.000000   0.000000   0.000005  -0.000409
    29  H   -0.000000   0.000000   0.000000   0.000000  -0.000009   0.000527
    30  O   -0.000000   0.000000   0.000000   0.000000   0.000002   0.000289
    31  H    0.000000  -0.000000   0.000000  -0.000000  -0.000000  -0.000002
    32  H   -0.000000  -0.000000   0.000000  -0.000000  -0.000000  -0.000002
    33  C   -0.000003   0.000307   0.000000   0.000000   0.003713  -0.004282
    34  H    0.000000   0.000004  -0.000000   0.000000   0.005834  -0.001075
    35  H    0.000000   0.000004   0.000000  -0.000000   0.005926   0.000118
    36  H    0.000000   0.000002  -0.000000  -0.000000  -0.000069   0.000083
    37  C    0.000178  -0.003951  -0.001447  -0.001715   0.000007  -0.000000
    38  H    0.000070   0.007256  -0.001535   0.007949  -0.000000   0.000000
    39  H    0.000068   0.007134   0.007875  -0.001475  -0.000000  -0.000000
    40  H    0.000003  -0.000183   0.000096   0.000092  -0.000000  -0.000000
    41  C    0.004994   0.000307   0.000000   0.000000   0.003713  -0.004282
    42  H    0.000009   0.000004   0.000000  -0.000000   0.005926   0.000118
    43  H    0.000007   0.000004  -0.000000   0.000000   0.005834  -0.001075
    44  H   -0.000117   0.000002  -0.000000  -0.000000  -0.000069   0.000083
    45  C   -0.070749  -0.003951  -0.001447  -0.001715   0.000007  -0.000000
    46  H   -0.003118   0.007134   0.007875  -0.001475  -0.000000  -0.000000
    47  H   -0.003177   0.007256  -0.001535   0.007949  -0.000000   0.000000
    48  H    0.004945  -0.000183   0.000096   0.000092  -0.000000  -0.000000
              19         20         21         22         23         24
     1  C   -0.003785   0.000770  -0.001235   0.000700  -0.001267   0.000067
     2  C   -0.003785   0.000770  -0.001235   0.000700  -0.001267   0.000067
     3  C   -0.094708   0.011943  -0.008937   0.011782  -0.008888   0.000752
     4  C    0.000495  -0.000210   0.000042  -0.000198   0.000035  -0.000006
     5  C   -0.000071  -0.000004   0.000029  -0.000004   0.000030   0.000000
     6  C   -0.000009  -0.000000  -0.000007  -0.000000  -0.000007   0.000000
     7  H    0.000001   0.000000  -0.000000   0.000000  -0.000000   0.000000
     8  C   -0.000009  -0.000000  -0.000007  -0.000000  -0.000007   0.000000
     9  C    0.000495  -0.000210   0.000042  -0.000198   0.000035  -0.000006
    10  C   -0.000071  -0.000004   0.000029  -0.000004   0.000030   0.000000
    11  H    0.000001   0.000000  -0.000000   0.000000  -0.000000   0.000000
    12  N    0.000029   0.000003  -0.000075   0.000003  -0.000074  -0.000000
    13  N    0.000029   0.000003  -0.000075   0.000003  -0.000074  -0.000000
    14  B    0.000059   0.000000  -0.000008  -0.000000  -0.000008   0.000000
    15  F   -0.000000  -0.000000  -0.000000   0.000000   0.000000   0.000000
    16  F    0.000000   0.000000   0.000000  -0.000000  -0.000000   0.000000
    17  C    0.142986   0.127224  -0.065334   0.128299  -0.064068  -0.206762
    18  C    0.054804   0.250567   0.465139  -0.116248   0.013250   0.154016
    19  C    5.122867  -0.119389   0.013213   0.262762   0.465443   0.164217
    20  C   -0.119389   5.361939  -0.062360   0.023420  -0.002567   0.054281
    21  H    0.013213  -0.062360   0.593653  -0.002613  -0.000094   0.015193
    22  C    0.262762   0.023420  -0.002613   5.306238  -0.064079   0.066665
    23  H    0.465443  -0.002567  -0.000094  -0.064079   0.591903   0.014621
    24  C    0.164217   0.054281   0.015193   0.066665   0.014621   5.304232
    25  H   -0.003366   0.443753  -0.011983   0.013328   0.000008  -0.088766
    26  H   -0.057055   0.013267   0.000010   0.463943  -0.010679  -0.070980
    27  N    0.006306  -0.102864  -0.000076  -0.094485  -0.000082   0.565572
    28  H    0.000513   0.010323   0.000007  -0.022329  -0.000018  -0.000256
    29  H   -0.000216  -0.019821  -0.000016   0.008123   0.000004  -0.002542
    30  O   -0.000001  -0.002841  -0.000012  -0.000024  -0.000000  -0.004395
    31  H   -0.000000  -0.000116   0.000000   0.000007   0.000000   0.000190
    32  H   -0.000000  -0.000116   0.000000   0.000007   0.000000   0.000190
    33  C   -0.004266  -0.000272  -0.000426  -0.000268  -0.000434  -0.000225
    34  H    0.000186   0.000061  -0.000016   0.001211   0.000328  -0.000348
    35  H   -0.001101   0.001261   0.000319   0.000058  -0.000016  -0.000332
    36  H    0.000084  -0.000006   0.000003  -0.000006   0.000003   0.000004
    37  C   -0.000000   0.000000  -0.000000   0.000000  -0.000000  -0.000000
    38  H   -0.000000  -0.000000   0.000000   0.000000   0.000000   0.000000
    39  H    0.000000   0.000000   0.000000  -0.000000   0.000000   0.000000
    40  H   -0.000000  -0.000000   0.000000  -0.000000   0.000000  -0.000000
    41  C   -0.004266  -0.000272  -0.000426  -0.000268  -0.000434  -0.000225
    42  H   -0.001101   0.001261   0.000319   0.000058  -0.000016  -0.000332
    43  H    0.000186   0.000061  -0.000016   0.001211   0.000328  -0.000348
    44  H    0.000084  -0.000006   0.000003  -0.000006   0.000003   0.000004
    45  C   -0.000000   0.000000  -0.000000   0.000000  -0.000000  -0.000000
    46  H    0.000000   0.000000   0.000000  -0.000000   0.000000   0.000000
    47  H   -0.000000  -0.000000   0.000000   0.000000   0.000000   0.000000
    48  H   -0.000000  -0.000000   0.000000  -0.000000   0.000000  -0.000000
              25         26         27         28         29         30
     1  C   -0.000014  -0.000007   0.000000  -0.000000  -0.000000  -0.000000
     2  C   -0.000014  -0.000007   0.000000  -0.000000  -0.000000  -0.000000
     3  C   -0.000195  -0.000210   0.000018  -0.000000   0.000000   0.000000
     4  C    0.000005   0.000004   0.000000   0.000000   0.000000   0.000000
     5  C   -0.000000  -0.000000   0.000000  -0.000000  -0.000000   0.000000
     6  C    0.000000   0.000000   0.000000   0.000000   0.000000  -0.000000
     7  H   -0.000000  -0.000000  -0.000000  -0.000000   0.000000  -0.000000
     8  C    0.000000   0.000000   0.000000   0.000000   0.000000  -0.000000
     9  C    0.000005   0.000004   0.000000   0.000000   0.000000   0.000000
    10  C   -0.000000  -0.000000   0.000000  -0.000000  -0.000000   0.000000
    11  H   -0.000000  -0.000000  -0.000000  -0.000000   0.000000  -0.000000
    12  N   -0.000000  -0.000000   0.000000  -0.000000  -0.000000  -0.000000
    13  N   -0.000000  -0.000000   0.000000  -0.000000  -0.000000  -0.000000
    14  B   -0.000000  -0.000000   0.000000  -0.000000   0.000000   0.000000
    15  F    0.000000  -0.000000   0.000000  -0.000000   0.000000   0.000000
    16  F   -0.000000   0.000000   0.000000   0.000000   0.000000   0.000000
    17  C    0.016192   0.014829  -0.000545   0.000005  -0.000009   0.000002
    18  C   -0.044301  -0.003045   0.006108  -0.000409   0.000527   0.000289
    19  C   -0.003366  -0.057055   0.006306   0.000513  -0.000216  -0.000001
    20  C    0.443753   0.013267  -0.102864   0.010323  -0.019821  -0.002841
    21  H   -0.011983   0.000010  -0.000076   0.000007  -0.000016  -0.000012
    22  C    0.013328   0.463943  -0.094485  -0.022329   0.008123  -0.000024
    23  H    0.000008  -0.010679  -0.000082  -0.000018   0.000004  -0.000000
    24  C   -0.088766  -0.070980   0.565572  -0.000256  -0.002542  -0.004395
    25  H    0.614166  -0.000024  -0.012029  -0.000017   0.002329   0.022101
    26  H   -0.000024   0.582698  -0.009376   0.004169  -0.000186   0.000003
    27  N   -0.012029  -0.009376   5.989553   0.359260   0.333324  -0.034550
    28  H   -0.000017   0.004169   0.359260   0.452147  -0.017837   0.000241
    29  H    0.002329  -0.000186   0.333324  -0.017837   0.442778   0.084686
    30  O    0.022101   0.000003  -0.034550   0.000241   0.084686   7.619108
    31  H    0.001112  -0.000000   0.001853  -0.000024  -0.008245   0.334893
    32  H    0.001112  -0.000000   0.001853  -0.000024  -0.008245   0.334893
    33  C   -0.000013  -0.000011   0.000001  -0.000000  -0.000000  -0.000000
    34  H    0.000013   0.000008  -0.000016  -0.000001  -0.000000   0.000000
    35  H   -0.000000   0.000012  -0.000016  -0.000000  -0.000001  -0.000000
    36  H    0.000000   0.000000   0.000000   0.000000   0.000000  -0.000000
    37  C   -0.000000  -0.000000  -0.000000  -0.000000  -0.000000  -0.000000
    38  H    0.000000  -0.000000   0.000000  -0.000000   0.000000  -0.000000
    39  H   -0.000000   0.000000   0.000000   0.000000  -0.000000   0.000000
    40  H    0.000000   0.000000   0.000000   0.000000   0.000000  -0.000000
    41  C   -0.000013  -0.000011   0.000001  -0.000000  -0.000000  -0.000000
    42  H   -0.000000   0.000012  -0.000016  -0.000000  -0.000001  -0.000000
    43  H    0.000013   0.000008  -0.000016  -0.000001  -0.000000   0.000000
    44  H    0.000000   0.000000   0.000000   0.000000   0.000000  -0.000000
    45  C   -0.000000  -0.000000  -0.000000  -0.000000  -0.000000  -0.000000
    46  H   -0.000000   0.000000   0.000000   0.000000  -0.000000   0.000000
    47  H    0.000000  -0.000000   0.000000  -0.000000   0.000000  -0.000000
    48  H    0.000000   0.000000   0.000000   0.000000   0.000000  -0.000000
              31         32         33         34         35         36
     1  C   -0.000000   0.000000  -0.076305  -0.003130  -0.003122   0.008674
     2  C    0.000000  -0.000000   0.000092  -0.000246  -0.000250   0.000020
     3  C   -0.000000  -0.000000  -0.014393  -0.000561  -0.000602   0.000306
     4  C    0.000000   0.000000   0.432120  -0.016573  -0.016666  -0.009389
     5  C    0.000000  -0.000000  -0.084031   0.003882   0.003912  -0.010999
     6  C    0.000000  -0.000000   0.015274  -0.000444  -0.000445   0.000179
     7  H   -0.000000   0.000000  -0.010489   0.000153   0.000154   0.004746
     8  C   -0.000000   0.000000  -0.000000  -0.000000  -0.000000   0.000000
     9  C    0.000000   0.000000  -0.000005  -0.000008  -0.000008   0.000000
    10  C   -0.000000   0.000000   0.000000   0.000000   0.000000  -0.000000
    11  H    0.000000  -0.000000  -0.000000   0.000000   0.000000  -0.000000
    12  N   -0.000000   0.000000   0.004994   0.000007   0.000009  -0.000117
    13  N    0.000000  -0.000000  -0.000003   0.000000   0.000000   0.000000
    14  B   -0.000000  -0.000000   0.000307   0.000004   0.000004   0.000002
    15  F    0.000000   0.000000   0.000000  -0.000000   0.000000  -0.000000
    16  F   -0.000000  -0.000000   0.000000   0.000000  -0.000000  -0.000000
    17  C   -0.000000  -0.000000   0.003713   0.005834   0.005926  -0.000069
    18  C   -0.000002  -0.000002  -0.004282  -0.001075   0.000118   0.000083
    19  C   -0.000000  -0.000000  -0.004266   0.000186  -0.001101   0.000084
    20  C   -0.000116  -0.000116  -0.000272   0.000061   0.001261  -0.000006
    21  H    0.000000   0.000000  -0.000426  -0.000016   0.000319   0.000003
    22  C    0.000007   0.000007  -0.000268   0.001211   0.000058  -0.000006
    23  H    0.000000   0.000000  -0.000434   0.000328  -0.000016   0.000003
    24  C    0.000190   0.000190  -0.000225  -0.000348  -0.000332   0.000004
    25  H    0.001112   0.001112  -0.000013   0.000013  -0.000000   0.000000
    26  H   -0.000000  -0.000000  -0.000011   0.000008   0.000012   0.000000
    27  N    0.001853   0.001853   0.000001  -0.000016  -0.000016   0.000000
    28  H   -0.000024  -0.000024  -0.000000  -0.000001  -0.000000   0.000000
    29  H   -0.008245  -0.008245  -0.000000  -0.000000  -0.000001   0.000000
    30  O    0.334893   0.334893  -0.000000   0.000000  -0.000000  -0.000000
    31  H    0.454262  -0.018349  -0.000000  -0.000000   0.000000  -0.000000
    32  H   -0.018349   0.454262   0.000000   0.000000  -0.000000   0.000000
    33  C   -0.000000   0.000000   4.551915   0.377923   0.377811   0.378611
    34  H   -0.000000   0.000000   0.377923   0.627856  -0.023971  -0.019124
    35  H    0.000000  -0.000000   0.377811  -0.023971   0.628598  -0.019168
    36  H   -0.000000   0.000000   0.378611  -0.019124  -0.019168   0.618474
    37  C   -0.000000   0.000000  -0.000250   0.000010   0.000010  -0.000016
    38  H    0.000000   0.000000   0.000010   0.000000  -0.000001   0.000000
    39  H   -0.000000  -0.000000   0.000010  -0.000001   0.000000   0.000000
    40  H    0.000000   0.000000  -0.000011   0.000000   0.000000   0.000001
    41  C    0.000000  -0.000000  -0.000001  -0.000001  -0.000001   0.000000
    42  H   -0.000000   0.000000  -0.000001  -0.000001   0.000006   0.000000
    43  H    0.000000  -0.000000  -0.000001   0.000005  -0.000001   0.000000
    44  H    0.000000  -0.000000   0.000000   0.000000   0.000000  -0.000000
    45  C    0.000000  -0.000000  -0.000000  -0.000000  -0.000000   0.000000
    46  H   -0.000000  -0.000000  -0.000000  -0.000000   0.000000   0.000000
    47  H    0.000000   0.000000  -0.000000   0.000000  -0.000000   0.000000
    48  H    0.000000   0.000000  -0.000000  -0.000000  -0.000000   0.000000
              37         38         39         40         41         42
     1  C    0.010276  -0.000002  -0.000001  -0.000166   0.000092  -0.000250
     2  C    0.000017  -0.000005  -0.000004   0.000001  -0.076305  -0.003122
     3  C   -0.000293  -0.000007  -0.000007   0.000009  -0.014393  -0.000602
     4  C    0.012531  -0.000317  -0.000323   0.000459  -0.000005  -0.000008
     5  C   -0.087782   0.003233   0.003237  -0.014034   0.000000   0.000000
     6  C    0.409435  -0.011141  -0.011145  -0.002986  -0.000000  -0.000000
     7  H   -0.009524   0.000152   0.000154   0.003627  -0.000000   0.000000
     8  C   -0.000007   0.000009   0.000009  -0.000000   0.015274  -0.000445
     9  C   -0.000002   0.000000   0.000000   0.000000   0.432120  -0.016666
    10  C    0.000000   0.000000   0.000000   0.000000  -0.084030   0.003912
    11  H    0.000000  -0.000000  -0.000000  -0.000000  -0.010489   0.000154
    12  N   -0.070749  -0.003177  -0.003118   0.004945  -0.000003   0.000000
    13  N    0.000178   0.000070   0.000068   0.000003   0.004994   0.000009
    14  B   -0.003951   0.007256   0.007134  -0.000183   0.000307   0.000004
    15  F   -0.001447  -0.001535   0.007875   0.000096   0.000000   0.000000
    16  F   -0.001715   0.007949  -0.001475   0.000092   0.000000  -0.000000
    17  C    0.000007  -0.000000  -0.000000  -0.000000   0.003713   0.005926
    18  C   -0.000000   0.000000  -0.000000  -0.000000  -0.004282   0.000118
    19  C   -0.000000  -0.000000   0.000000  -0.000000  -0.004266  -0.001101
    20  C    0.000000  -0.000000   0.000000  -0.000000  -0.000272   0.001261
    21  H   -0.000000   0.000000   0.000000   0.000000  -0.000426   0.000319
    22  C    0.000000   0.000000  -0.000000  -0.000000  -0.000268   0.000058
    23  H   -0.000000   0.000000   0.000000   0.000000  -0.000434  -0.000016
    24  C   -0.000000   0.000000   0.000000  -0.000000  -0.000225  -0.000332
    25  H   -0.000000   0.000000  -0.000000   0.000000  -0.000013  -0.000000
    26  H   -0.000000  -0.000000   0.000000   0.000000  -0.000011   0.000012
    27  N   -0.000000   0.000000   0.000000   0.000000   0.000001  -0.000016
    28  H   -0.000000  -0.000000   0.000000   0.000000  -0.000000  -0.000000
    29  H   -0.000000   0.000000  -0.000000   0.000000  -0.000000  -0.000001
    30  O   -0.000000  -0.000000   0.000000  -0.000000  -0.000000  -0.000000
    31  H   -0.000000   0.000000  -0.000000   0.000000   0.000000  -0.000000
    32  H    0.000000   0.000000  -0.000000   0.000000  -0.000000   0.000000
    33  C   -0.000250   0.000010   0.000010  -0.000011  -0.000001  -0.000001
    34  H    0.000010   0.000000  -0.000001   0.000000  -0.000001  -0.000001
    35  H    0.000010  -0.000001   0.000000   0.000000  -0.000001   0.000006
    36  H   -0.000016   0.000000   0.000000   0.000001   0.000000   0.000000
    37  C    4.579623   0.370521   0.370619   0.379591  -0.000000  -0.000000
    38  H    0.370521   0.608990  -0.027083  -0.018366  -0.000000  -0.000000
    39  H    0.370619  -0.027083   0.609001  -0.018333  -0.000000   0.000000
    40  H    0.379591  -0.018366  -0.018333   0.618282  -0.000000  -0.000000
    41  C   -0.000000  -0.000000  -0.000000  -0.000000   4.551915   0.377811
    42  H   -0.000000  -0.000000   0.000000  -0.000000   0.377811   0.628598
    43  H   -0.000000   0.000000  -0.000000  -0.000000   0.377923  -0.023971
    44  H    0.000000   0.000000   0.000000   0.000000   0.378611  -0.019168
    45  C    0.000018  -0.000007  -0.000008   0.000000  -0.000250   0.000010
    46  H   -0.000008   0.000006  -0.000004  -0.000000   0.000010   0.000000
    47  H   -0.000007  -0.000004   0.000006  -0.000000   0.000010  -0.000001
    48  H    0.000000  -0.000000  -0.000000  -0.000000  -0.000011   0.000000
              43         44         45         46         47         48
     1  C   -0.000246   0.000020   0.000017  -0.000004  -0.000005   0.000001
     2  C   -0.003130   0.008674   0.010276  -0.000001  -0.000002  -0.000166
     3  C   -0.000561   0.000306  -0.000293  -0.000007  -0.000007   0.000009
     4  C   -0.000008   0.000000  -0.000002   0.000000   0.000000   0.000000
     5  C    0.000000  -0.000000   0.000000   0.000000   0.000000   0.000000
     6  C   -0.000000   0.000000  -0.000007   0.000009   0.000009  -0.000000
     7  H    0.000000  -0.000000   0.000000  -0.000000  -0.000000  -0.000000
     8  C   -0.000444   0.000179   0.409435  -0.011145  -0.011141  -0.002986
     9  C   -0.016573  -0.009390   0.012531  -0.000323  -0.000317   0.000459
    10  C    0.003882  -0.010999  -0.087782   0.003237   0.003233  -0.014034
    11  H    0.000153   0.004746  -0.009524   0.000154   0.000152   0.003627
    12  N    0.000000   0.000000   0.000178   0.000068   0.000070   0.000003
    13  N    0.000007  -0.000117  -0.070749  -0.003118  -0.003177   0.004945
    14  B    0.000004   0.000002  -0.003951   0.007134   0.007256  -0.000183
    15  F   -0.000000  -0.000000  -0.001447   0.007875  -0.001535   0.000096
    16  F    0.000000  -0.000000  -0.001715  -0.001475   0.007949   0.000092
    17  C    0.005834  -0.000069   0.000007  -0.000000  -0.000000  -0.000000
    18  C   -0.001075   0.000083  -0.000000  -0.000000   0.000000  -0.000000
    19  C    0.000186   0.000084  -0.000000   0.000000  -0.000000  -0.000000
    20  C    0.000061  -0.000006   0.000000   0.000000  -0.000000  -0.000000
    21  H   -0.000016   0.000003  -0.000000   0.000000   0.000000   0.000000
    22  C    0.001211  -0.000006   0.000000  -0.000000   0.000000  -0.000000
    23  H    0.000328   0.000003  -0.000000   0.000000   0.000000   0.000000
    24  C   -0.000348   0.000004  -0.000000   0.000000   0.000000  -0.000000
    25  H    0.000013   0.000000  -0.000000  -0.000000   0.000000   0.000000
    26  H    0.000008   0.000000  -0.000000   0.000000  -0.000000   0.000000
    27  N   -0.000016   0.000000  -0.000000   0.000000   0.000000   0.000000
    28  H   -0.000001   0.000000  -0.000000   0.000000  -0.000000   0.000000
    29  H   -0.000000   0.000000  -0.000000  -0.000000   0.000000   0.000000
    30  O    0.000000  -0.000000  -0.000000   0.000000  -0.000000  -0.000000
    31  H    0.000000   0.000000   0.000000  -0.000000   0.000000   0.000000
    32  H   -0.000000  -0.000000  -0.000000  -0.000000   0.000000   0.000000
    33  C   -0.000001   0.000000  -0.000000  -0.000000  -0.000000  -0.000000
    34  H    0.000005   0.000000  -0.000000  -0.000000   0.000000  -0.000000
    35  H   -0.000001   0.000000  -0.000000   0.000000  -0.000000  -0.000000
    36  H    0.000000  -0.000000   0.000000   0.000000   0.000000   0.000000
    37  C   -0.000000   0.000000   0.000018  -0.000008  -0.000007   0.000000
    38  H    0.000000   0.000000  -0.000007   0.000006  -0.000004  -0.000000
    39  H   -0.000000   0.000000  -0.000008  -0.000004   0.000006  -0.000000
    40  H   -0.000000   0.000000   0.000000  -0.000000  -0.000000  -0.000000
    41  C    0.377923   0.378611  -0.000250   0.000010   0.000010  -0.000011
    42  H   -0.023971  -0.019168   0.000010   0.000000  -0.000001   0.000000
    43  H    0.627856  -0.019124   0.000010  -0.000001   0.000000   0.000000
    44  H   -0.019124   0.618474  -0.000016   0.000000   0.000000   0.000001
    45  C    0.000010  -0.000016   4.579623   0.370619   0.370521   0.379591
    46  H   -0.000001   0.000000   0.370619   0.609001  -0.027083  -0.018333
    47  H    0.000000   0.000000   0.370521  -0.027083   0.608990  -0.018366
    48  H    0.000000   0.000001   0.379591  -0.018333  -0.018366   0.618282
 Mulliken charges:
               1
     1  C    0.065106
     2  C    0.065105
     3  C   -0.073072
     4  C   -0.199732
     5  C   -0.173272
     6  C   -0.066681
     7  H    0.007058
     8  C   -0.066680
     9  C   -0.199732
    10  C   -0.173272
    11  H    0.007058
    12  N   -0.223328
    13  N   -0.223329
    14  B    0.206435
    15  F   -0.285672
    16  F   -0.285869
    17  C   -0.140038
    18  C    0.059414
    19  C    0.058440
    20  C    0.010151
    21  H    0.066947
    22  C    0.012213
    23  H    0.068060
    24  C    0.035451
    25  H    0.046597
    26  H    0.072624
    27  N   -0.009777
    28  H    0.214252
    29  H    0.185350
    30  O   -0.354393
    31  H    0.234420
    32  H    0.234420
    33  C    0.052903
    34  H    0.048033
    35  H    0.047506
    36  H    0.047705
    37  C    0.042915
    38  H    0.063448
    39  H    0.063389
    40  H    0.046973
    41  C    0.052903
    42  H    0.047506
    43  H    0.048033
    44  H    0.047705
    45  C    0.042915
    46  H    0.063389
    47  H    0.063448
    48  H    0.046973
 Sum of Mulliken charges =  -0.00000
 Mulliken charges with hydrogens summed into heavy atoms:
               1
     1  C    0.065106
     2  C    0.065105
     3  C   -0.073072
     4  C   -0.199732
     5  C   -0.166214
     6  C   -0.066681
     8  C   -0.066680
     9  C   -0.199732
    10  C   -0.166214
    12  N   -0.223328
    13  N   -0.223329
    14  B    0.206435
    15  F   -0.285672
    16  F   -0.285869
    17  C   -0.140038
    18  C    0.126361
    19  C    0.126500
    20  C    0.056748
    22  C    0.084838
    24  C    0.035451
    27  N    0.389825
    30  O    0.114447
    33  C    0.196147
    37  C    0.216726
    41  C    0.196148
    45  C    0.216726
 Electronic spatial extent (au):  <R**2>=          10430.5860
 Charge=             -0.0000 electrons
 Dipole moment (field-independent basis, Debye):
    X=             30.6509    Y=             -0.0000    Z=              0.1572  Tot=             30.6513
 Quadrupole moment (field-independent basis, Debye-Ang):
   XX=            -76.3881   YY=           -152.8314   ZZ=           -137.6532
   XY=              0.0001   XZ=              9.9135   YZ=              0.0001
 Traceless Quadrupole moment (field-independent basis, Debye-Ang):
   XX=             45.9028   YY=            -30.5405   ZZ=            -15.3623
   XY=              0.0001   XZ=              9.9135   YZ=              0.0001
 Octapole moment (field-independent basis, Debye-Ang**2):
  XXX=            740.6327  YYY=              0.0007  ZZZ=             20.2164  XYY=              7.3828
  XXY=             -0.0004  XXZ=             77.3063  XZZ=            151.9901  YZZ=              0.0000
  YYZ=             12.0307  XYZ=              0.0008
 Hexadecapole moment (field-independent basis, Debye-Ang**3):
 XXXX=          -5842.1537 YYYY=          -3584.7747 ZZZZ=           -572.8620 XXXY=              0.0014
 XXXZ=            613.7844 YYYX=              0.0019 YYYZ=              0.0001 ZZZX=            191.7542
 ZZZY=              0.0012 XXYY=          -1932.2458 XXZZ=           -942.3530 YYZZ=           -793.8327
 XXYZ=              0.0033 YYXZ=             49.2170 ZZXY=              0.0006
 N-N= 2.355135334119D+03 E-N=-7.510950075791D+03  KE= 1.187813181382D+03
 1\1\GINC-X1001C2S0B0N1\SP\RM062X TD-FC\def2SVP\C19H22B1F2N3O1\XIAOGAN4
 \22-Dec-2025\0\\# m062x/def2SVP TD=(NStates=5, Root=1) SCRF=(SMD, solv
 ent=Ethanol, CorrectedLR) geom=check guess=read\\Step6 ES cLR m062x/de
 f2SVP\\0,1\C,0,0.766024,1.238287,-0.069486\C,0,0.766013,-1.238284,-0.0
 69489\C,0,0.060193,0.000005,-0.138718\C,0,0.321959,2.590438,-0.113804\
 C,0,1.487228,3.387875,0.001472\C,0,2.593685,2.549645,0.111514\H,0,1.51
 918,4.477913,0.004465\C,0,2.593662,-2.549659,0.111506\C,0,0.321935,-2.
 590431,-0.11381\C,0,1.487198,-3.387878,0.001463\H,0,1.519139,-4.477917
 ,0.004452\N,0,2.155738,1.245179,0.06795\N,0,2.155726,-1.245188,0.06794
 7\B,0,3.047183,-0.000009,0.159849\F,0,4.006927,-0.000012,-0.888189\F,0
 ,3.772786,-0.000014,1.382158\C,0,-1.418644,0.000011,-0.282082\C,0,-2.2
 62037,0.000013,0.865449\C,0,-2.027394,0.000015,-1.570456\C,0,-3.6303,0
 .000014,0.747093\H,0,-1.804081,0.000012,1.856076\C,0,-3.393234,0.00001
 7,-1.717981\H,0,-1.386908,0.000015,-2.454164\C,0,-4.233565,0.000015,-0
 .555764\H,0,-4.281022,0.000015,1.622507\H,0,-3.859471,0.000018,-2.7052
 65\N,0,-5.557286,0.000012,-0.669874\H,0,-5.991927,0.000012,-1.591092\H
 ,0,-6.160507,0.000004,0.173795\O,0,-7.020375,-0.000023,1.709151\H,0,-6
 .930779,0.766947,2.298263\H,0,-6.930758,-0.767003,2.298246\C,0,-1.0734
 66,3.128534,-0.252295\H,0,-1.56394,2.817619,-1.190343\H,0,-1.739176,2.
 81625,0.570169\H,0,-1.053033,4.229911,-0.24944\C,0,4.034587,2.923251,0
 .25585\H,0,4.471294,2.524669,1.187067\H,0,4.647343,2.52786,-0.57169\H,
 0,4.14165,4.017719,0.26846\C,0,-1.073495,-3.128514,-0.252303\H,0,-1.73
 92,-2.816228,0.570164\H,0,-1.563967,-2.817591,-1.190349\H,0,-1.053071,
 -4.229892,-0.249453\C,0,4.034561,-2.923278,0.255841\H,0,4.64732,-2.527
 891,-0.571699\H,0,4.471272,-2.524703,1.187059\H,0,4.141614,-4.017748,0
 .268447\\Version=ES64L-G16RevA.03\State=1-A\HF=-1200.1616379\RMSD=4.65
 2e-09\Dipole=-12.0589885,0.0000169,0.0618525\Quadrupole=34.1275909,-22
 .7061102,-11.4214807,0.0000722,-7.3704761,-0.0000777\PG=C01 [X(C19H22B
 1F2N3O1)]\\@


 The theorems and results in mathematical physics are
 not theorems and results about Nature, but about our
 description of it.
                   --Gerard 't Hooft
 Job cpu time:       0 days 11 hours 55 minutes 55.4 seconds.
 Elapsed time:       0 days  0 hours 11 minutes 21.6 seconds.
 File lengths (MBytes):  RWF=   1745 Int=      0 D2E=      0 Chk=     61 Scr=      1
 Normal termination of Gaussian 16 at Mon Dec 22 11:22:35 2025.
