 Entering Gaussian System, Link 0=g16
 Initial command:
 /home/users/sutd/1008721/g16/l1.exe "/home/users/sutd/1008721/scratch/g16/scratch/Gau-1291949.inp" -scrdir="/home/users/sutd/1008721/scratch/g16/scratch/"
 Entering Link 1 = /home/users/sutd/1008721/g16/l1.exe PID=   1291950.
  
 Copyright (c) 1988-2019, Gaussian, Inc.  All Rights Reserved.
  
 This is part of the Gaussian(R) 16 program.  It is based on
 the Gaussian(R) 09 system (copyright 2009, Gaussian, Inc.),
 the Gaussian(R) 03 system (copyright 2003, Gaussian, Inc.),
 the Gaussian(R) 98 system (copyright 1998, Gaussian, Inc.),
 the Gaussian(R) 94 system (copyright 1995, Gaussian, Inc.),
 the Gaussian 92(TM) system (copyright 1992, Gaussian, Inc.),
 the Gaussian 90(TM) system (copyright 1990, Gaussian, Inc.),
 the Gaussian 88(TM) system (copyright 1988, Gaussian, Inc.),
 the Gaussian 86(TM) system (copyright 1986, Carnegie Mellon
 University), and the Gaussian 82(TM) system (copyright 1983,
 Carnegie Mellon University). Gaussian is a federally registered
 trademark of Gaussian, Inc.
  
 This software contains proprietary and confidential information,
 including trade secrets, belonging to Gaussian, Inc.
  
 This software is provided under written license and may be
 used, copied, transmitted, or stored only in accord with that
 written license.
  
 The following legend is applicable only to US Government
 contracts under FAR:
  
                    RESTRICTED RIGHTS LEGEND
  
 Use, reproduction and disclosure by the US Government is
 subject to restrictions as set forth in subparagraphs (a)
 and (c) of the Commercial Computer Software - Restricted
 Rights clause in FAR 52.227-19.
  
 Gaussian, Inc.
 340 Quinnipiac St., Bldg. 40, Wallingford CT 06492
  
  
 ---------------------------------------------------------------
 Warning -- This program may not be used in any manner that
 competes with the business of Gaussian, Inc. or will provide
 assistance to any competitor of Gaussian, Inc.  The licensee
 of this program is prohibited from giving any competitor of
 Gaussian, Inc. access to this program.  By using this program,
 the user acknowledges that Gaussian, Inc. is engaged in the
 business of creating and licensing software in the field of
 computational chemistry and represents and warrants to the
 licensee that it is not a competitor of Gaussian, Inc. and that
 it will not use this program in any manner prohibited above.
 ---------------------------------------------------------------
  

 Cite this work as:
 Gaussian 16, Revision C.01,
 M. J. Frisch, G. W. Trucks, H. B. Schlegel, G. E. Scuseria, 
 M. A. Robb, J. R. Cheeseman, G. Scalmani, V. Barone, 
 G. A. Petersson, H. Nakatsuji, X. Li, M. Caricato, A. V. Marenich, 
 J. Bloino, B. G. Janesko, R. Gomperts, B. Mennucci, H. P. Hratchian, 
 J. V. Ortiz, A. F. Izmaylov, J. L. Sonnenberg, D. Williams-Young, 
 F. Ding, F. Lipparini, F. Egidi, J. Goings, B. Peng, A. Petrone, 
 T. Henderson, D. Ranasinghe, V. G. Zakrzewski, J. Gao, N. Rega, 
 G. Zheng, W. Liang, M. Hada, M. Ehara, K. Toyota, R. Fukuda, 
 J. Hasegawa, M. Ishida, T. Nakajima, Y. Honda, O. Kitao, H. Nakai, 
 T. Vreven, K. Throssell, J. A. Montgomery, Jr., J. E. Peralta, 
 F. Ogliaro, M. J. Bearpark, J. J. Heyd, E. N. Brothers, K. N. Kudin, 
 V. N. Staroverov, T. A. Keith, R. Kobayashi, J. Normand, 
 K. Raghavachari, A. P. Rendell, J. C. Burant, S. S. Iyengar, 
 J. Tomasi, M. Cossi, J. M. Millam, M. Klene, C. Adamo, R. Cammi, 
 J. W. Ochterski, R. L. Martin, K. Morokuma, O. Farkas, 
 J. B. Foresman, and D. J. Fox, Gaussian, Inc., Wallingford CT, 2019.
 
 ******************************************
 Gaussian 16:  ES64L-G16RevC.01  3-Jul-2019
                10-Oct-2025 
 ******************************************
 %nprocshared=32
 Will use up to   32 processors via shared memory.
 %mem=64GB
 %chk=00BDP-NH2_ethanol_m062x_m062x_m062x.chk
 ----------------------------------------------------
 # opt freq scrf=(smd,solvent=ethanol) def2tzvp m062x
 ----------------------------------------------------
 1/18=20,19=15,26=3,38=1/1,3;
 2/9=110,12=2,17=6,18=5,40=1/2;
 3/5=44,7=101,11=2,25=1,30=1,70=32201,71=1,72=4,74=-55/1,2,3;
 4//1;
 5/5=2,38=5,53=4/2;
 6/7=2,8=2,9=2,10=2,28=1/1;
 7//1,2,3,16;
 1/18=20,19=15,26=3/3(2);
 2/9=110/2;
 99//99;
 2/9=110/2;
 3/5=44,7=101,11=2,25=1,30=1,70=32205,71=1,72=4,74=-55/1,2,3;
 4/5=5,16=3,69=1/1;
 5/5=2,38=5,53=4/2;
 7//1,2,3,16;
 1/18=20,19=15,26=3/3(-5);
 2/9=110/2;
 6/7=2,8=2,9=2,10=2,19=2,28=1/1;
 99/9=1/99;
 -----------------------------------
 00BDP-NH2_ethanol_m062x_m062x_m062x
 -----------------------------------
 Symbolic Z-matrix:
 Charge =  0 Multiplicity = 1
 C                     0.62198  -1.21688  -0.0582 
 C                     0.62572   1.21879   0.04242 
 C                    -0.09601   0.00192  -0.00414 
 C                     0.17275  -2.5483   -0.23217 
 C                     1.3031   -3.35996  -0.28161 
 C                     2.41395  -2.50923  -0.15757 
 H                     1.33745  -4.43896  -0.409 
 C                     2.42233   2.50672   0.11303 
 C                     0.18151   2.55468   0.19372 
 C                     1.31471   3.36334   0.22419 
 H                     1.35281   4.44463   0.32919 
 N                     2.00772  -1.24001  -0.02674 
 N                     2.01166   1.23657   0.00716 
 B                     2.9436   -0.00389   0.02108 
 F                     3.70593  -0.01227   1.1842 
 F                     3.78435   0.00183  -1.08571 
 C                    -1.55706   0.00249  -0.00024 
 C                    -2.291     0.8967   -0.8082 
 C                    -2.28489  -0.89349   0.81139 
 C                    -3.67321   0.89123  -0.81753 
 H                    -1.76032   1.57541  -1.47816 
 C                    -3.66701  -0.88885   0.83054 
 H                    -1.7487   -1.57474   1.47438 
 C                    -4.39956   0.00206   0.01019 
 H                    -4.21904   1.57105  -1.4747 
 H                    -4.20791  -1.57075   1.48964 
 H                    -0.85343   2.8736    0.28985 
 H                     3.48414   2.7518    0.12138 
 H                    -0.8637   -2.86092  -0.33335 
 H                     3.47486  -2.75777  -0.1719 
 N                    -5.75148   0.01533   0.02952 
 H                    -6.26119  -0.69794   0.53565 
 H                    -6.26486   0.58739  -0.62912 
 

 GradGradGradGradGradGradGradGradGradGradGradGradGradGradGradGradGradGrad
 Berny optimization.
 Initialization pass.
                           ----------------------------
                           !    Initial Parameters    !
                           ! (Angstroms and Degrees)  !
 --------------------------                            --------------------------
 ! Name  Definition              Value          Derivative Info.                !
 --------------------------------------------------------------------------------
 ! R1    R(1,3)                  1.4156         estimate D2E/DX2                !
 ! R2    R(1,4)                  1.4159         estimate D2E/DX2                !
 ! R3    R(1,12)                 1.3863         estimate D2E/DX2                !
 ! R4    R(2,3)                  1.4156         estimate D2E/DX2                !
 ! R5    R(2,9)                  1.4159         estimate D2E/DX2                !
 ! R6    R(2,13)                 1.3865         estimate D2E/DX2                !
 ! R7    R(3,17)                 1.461          estimate D2E/DX2                !
 ! R8    R(4,5)                  1.3925         estimate D2E/DX2                !
 ! R9    R(4,29)                 1.0873         estimate D2E/DX2                !
 ! R10   R(5,6)                  1.4047         estimate D2E/DX2                !
 ! R11   R(5,7)                  1.087          estimate D2E/DX2                !
 ! R12   R(6,12)                 1.339          estimate D2E/DX2                !
 ! R13   R(6,30)                 1.0897         estimate D2E/DX2                !
 ! R14   R(8,10)                 1.4046         estimate D2E/DX2                !
 ! R15   R(8,13)                 1.3391         estimate D2E/DX2                !
 ! R16   R(8,28)                 1.0898         estimate D2E/DX2                !
 ! R17   R(9,10)                 1.3925         estimate D2E/DX2                !
 ! R18   R(9,27)                 1.0872         estimate D2E/DX2                !
 ! R19   R(10,11)                1.087          estimate D2E/DX2                !
 ! R20   R(12,14)                1.5512         estimate D2E/DX2                !
 ! R21   R(13,14)                1.5516         estimate D2E/DX2                !
 ! R22   R(14,15)                1.3907         estimate D2E/DX2                !
 ! R23   R(14,16)                1.3899         estimate D2E/DX2                !
 ! R24   R(17,18)                1.4111         estimate D2E/DX2                !
 ! R25   R(17,19)                1.4111         estimate D2E/DX2                !
 ! R26   R(18,20)                1.3822         estimate D2E/DX2                !
 ! R27   R(18,21)                1.0914         estimate D2E/DX2                !
 ! R28   R(19,22)                1.3823         estimate D2E/DX2                !
 ! R29   R(19,23)                1.0914         estimate D2E/DX2                !
 ! R30   R(20,24)                1.4154         estimate D2E/DX2                !
 ! R31   R(20,25)                1.0918         estimate D2E/DX2                !
 ! R32   R(22,24)                1.4154         estimate D2E/DX2                !
 ! R33   R(22,26)                1.0918         estimate D2E/DX2                !
 ! R34   R(24,31)                1.3521         estimate D2E/DX2                !
 ! R35   R(31,32)                1.0123         estimate D2E/DX2                !
 ! R36   R(31,33)                1.0122         estimate D2E/DX2                !
 ! A1    A(3,1,4)              130.7969         estimate D2E/DX2                !
 ! A2    A(3,1,12)             121.3661         estimate D2E/DX2                !
 ! A3    A(4,1,12)             107.7129         estimate D2E/DX2                !
 ! A4    A(3,2,9)              130.89           estimate D2E/DX2                !
 ! A5    A(3,2,13)             121.3216         estimate D2E/DX2                !
 ! A6    A(9,2,13)             107.7105         estimate D2E/DX2                !
 ! A7    A(1,3,2)              118.8671         estimate D2E/DX2                !
 ! A8    A(1,3,17)             120.507          estimate D2E/DX2                !
 ! A9    A(2,3,17)             120.6257         estimate D2E/DX2                !
 ! A10   A(1,4,5)              107.1533         estimate D2E/DX2                !
 ! A11   A(1,4,29)             125.7496         estimate D2E/DX2                !
 ! A12   A(5,4,29)             127.0788         estimate D2E/DX2                !
 ! A13   A(4,5,6)              106.6069         estimate D2E/DX2                !
 ! A14   A(4,5,7)              127.4743         estimate D2E/DX2                !
 ! A15   A(6,5,7)              125.9103         estimate D2E/DX2                !
 ! A16   A(5,6,12)             110.0457         estimate D2E/DX2                !
 ! A17   A(5,6,30)             129.0953         estimate D2E/DX2                !
 ! A18   A(12,6,30)            120.852          estimate D2E/DX2                !
 ! A19   A(10,8,13)            110.0532         estimate D2E/DX2                !
 ! A20   A(10,8,28)            129.0916         estimate D2E/DX2                !
 ! A21   A(13,8,28)            120.8464         estimate D2E/DX2                !
 ! A22   A(2,9,10)             107.1542         estimate D2E/DX2                !
 ! A23   A(2,9,27)             125.7913         estimate D2E/DX2                !
 ! A24   A(10,9,27)            127.041          estimate D2E/DX2                !
 ! A25   A(8,10,9)             106.6078         estimate D2E/DX2                !
 ! A26   A(8,10,11)            125.9191         estimate D2E/DX2                !
 ! A27   A(9,10,11)            127.4662         estimate D2E/DX2                !
 ! A28   A(1,12,6)             108.4727         estimate D2E/DX2                !
 ! A29   A(1,12,14)            126.1924         estimate D2E/DX2                !
 ! A30   A(6,12,14)            125.1213         estimate D2E/DX2                !
 ! A31   A(2,13,8)             108.4644         estimate D2E/DX2                !
 ! A32   A(2,13,14)            126.1502         estimate D2E/DX2                !
 ! A33   A(8,13,14)            124.9882         estimate D2E/DX2                !
 ! A34   A(12,14,13)           105.9283         estimate D2E/DX2                !
 ! A35   A(12,14,15)           110.5915         estimate D2E/DX2                !
 ! A36   A(12,14,16)           110.1015         estimate D2E/DX2                !
 ! A37   A(13,14,15)           109.9722         estimate D2E/DX2                !
 ! A38   A(13,14,16)           110.664          estimate D2E/DX2                !
 ! A39   A(15,14,16)           109.5381         estimate D2E/DX2                !
 ! A40   A(3,17,18)            121.2554         estimate D2E/DX2                !
 ! A41   A(3,17,19)            121.1356         estimate D2E/DX2                !
 ! A42   A(18,17,19)           117.6089         estimate D2E/DX2                !
 ! A43   A(17,18,20)           121.4312         estimate D2E/DX2                !
 ! A44   A(17,18,21)           119.5164         estimate D2E/DX2                !
 ! A45   A(20,18,21)           118.9833         estimate D2E/DX2                !
 ! A46   A(17,19,22)           121.4376         estimate D2E/DX2                !
 ! A47   A(17,19,23)           119.4942         estimate D2E/DX2                !
 ! A48   A(22,19,23)           119.0062         estimate D2E/DX2                !
 ! A49   A(18,20,24)           120.7776         estimate D2E/DX2                !
 ! A50   A(18,20,25)           120.1015         estimate D2E/DX2                !
 ! A51   A(24,20,25)           119.1185         estimate D2E/DX2                !
 ! A52   A(19,22,24)           120.7697         estimate D2E/DX2                !
 ! A53   A(19,22,26)           120.1092         estimate D2E/DX2                !
 ! A54   A(24,22,26)           119.1188         estimate D2E/DX2                !
 ! A55   A(20,24,22)           117.9544         estimate D2E/DX2                !
 ! A56   A(20,24,31)           121.0178         estimate D2E/DX2                !
 ! A57   A(22,24,31)           121.0222         estimate D2E/DX2                !
 ! A58   A(24,31,32)           120.2448         estimate D2E/DX2                !
 ! A59   A(24,31,33)           120.2212         estimate D2E/DX2                !
 ! A60   A(32,31,33)           117.9146         estimate D2E/DX2                !
 ! D1    D(4,1,3,2)           -173.509          estimate D2E/DX2                !
 ! D2    D(4,1,3,17)             6.3245         estimate D2E/DX2                !
 ! D3    D(12,1,3,2)             1.9136         estimate D2E/DX2                !
 ! D4    D(12,1,3,17)         -178.253          estimate D2E/DX2                !
 ! D5    D(3,1,4,5)            176.8326         estimate D2E/DX2                !
 ! D6    D(3,1,4,29)            -1.6988         estimate D2E/DX2                !
 ! D7    D(12,1,4,5)             0.9347         estimate D2E/DX2                !
 ! D8    D(12,1,4,29)         -177.5966         estimate D2E/DX2                !
 ! D9    D(3,1,12,6)          -177.0069         estimate D2E/DX2                !
 ! D10   D(3,1,12,14)           -2.1202         estimate D2E/DX2                !
 ! D11   D(4,1,12,6)            -0.6432         estimate D2E/DX2                !
 ! D12   D(4,1,12,14)          174.2435         estimate D2E/DX2                !
 ! D13   D(9,2,3,1)           -174.9764         estimate D2E/DX2                !
 ! D14   D(9,2,3,17)             5.1904         estimate D2E/DX2                !
 ! D15   D(13,2,3,1)             1.3943         estimate D2E/DX2                !
 ! D16   D(13,2,3,17)         -178.4389         estimate D2E/DX2                !
 ! D17   D(3,2,9,10)           177.7549         estimate D2E/DX2                !
 ! D18   D(3,2,9,27)            -0.9843         estimate D2E/DX2                !
 ! D19   D(13,2,9,10)            1.0091         estimate D2E/DX2                !
 ! D20   D(13,2,9,27)         -177.7301         estimate D2E/DX2                !
 ! D21   D(3,2,13,8)          -177.8236         estimate D2E/DX2                !
 ! D22   D(3,2,13,14)           -4.7968         estimate D2E/DX2                !
 ! D23   D(9,2,13,8)            -0.703          estimate D2E/DX2                !
 ! D24   D(9,2,13,14)          172.3238         estimate D2E/DX2                !
 ! D25   D(1,3,17,18)         -135.3722         estimate D2E/DX2                !
 ! D26   D(1,3,17,19)           44.545          estimate D2E/DX2                !
 ! D27   D(2,3,17,18)           44.4583         estimate D2E/DX2                !
 ! D28   D(2,3,17,19)         -135.6245         estimate D2E/DX2                !
 ! D29   D(1,4,5,6)             -0.8591         estimate D2E/DX2                !
 ! D30   D(1,4,5,7)           -179.838          estimate D2E/DX2                !
 ! D31   D(29,4,5,6)           177.6468         estimate D2E/DX2                !
 ! D32   D(29,4,5,7)            -1.332          estimate D2E/DX2                !
 ! D33   D(4,5,6,12)             0.4841         estimate D2E/DX2                !
 ! D34   D(4,5,6,30)          -178.5401         estimate D2E/DX2                !
 ! D35   D(7,5,6,12)           179.4835         estimate D2E/DX2                !
 ! D36   D(7,5,6,30)             0.4593         estimate D2E/DX2                !
 ! D37   D(5,6,12,1)             0.103          estimate D2E/DX2                !
 ! D38   D(5,6,12,14)         -174.852          estimate D2E/DX2                !
 ! D39   D(30,6,12,1)          179.2209         estimate D2E/DX2                !
 ! D40   D(30,6,12,14)           4.2658         estimate D2E/DX2                !
 ! D41   D(13,8,10,9)            0.5087         estimate D2E/DX2                !
 ! D42   D(13,8,10,11)         179.6161         estimate D2E/DX2                !
 ! D43   D(28,8,10,9)         -178.4033         estimate D2E/DX2                !
 ! D44   D(28,8,10,11)           0.7041         estimate D2E/DX2                !
 ! D45   D(10,8,13,2)            0.1253         estimate D2E/DX2                !
 ! D46   D(10,8,13,14)        -173.0024         estimate D2E/DX2                !
 ! D47   D(28,8,13,2)          179.1417         estimate D2E/DX2                !
 ! D48   D(28,8,13,14)           6.014          estimate D2E/DX2                !
 ! D49   D(2,9,10,8)            -0.9194         estimate D2E/DX2                !
 ! D50   D(2,9,10,11)          179.9914         estimate D2E/DX2                !
 ! D51   D(27,9,10,8)          177.7993         estimate D2E/DX2                !
 ! D52   D(27,9,10,11)          -1.2899         estimate D2E/DX2                !
 ! D53   D(1,12,14,13)          -0.7204         estimate D2E/DX2                !
 ! D54   D(1,12,14,15)         118.4013         estimate D2E/DX2                !
 ! D55   D(1,12,14,16)        -120.4052         estimate D2E/DX2                !
 ! D56   D(6,12,14,13)         173.3476         estimate D2E/DX2                !
 ! D57   D(6,12,14,15)         -67.5308         estimate D2E/DX2                !
 ! D58   D(6,12,14,16)          53.6628         estimate D2E/DX2                !
 ! D59   D(2,13,14,12)           4.1646         estimate D2E/DX2                !
 ! D60   D(2,13,14,15)        -115.3645         estimate D2E/DX2                !
 ! D61   D(2,13,14,16)         123.4799         estimate D2E/DX2                !
 ! D62   D(8,13,14,12)         176.0844         estimate D2E/DX2                !
 ! D63   D(8,13,14,15)          56.5553         estimate D2E/DX2                !
 ! D64   D(8,13,14,16)         -64.6003         estimate D2E/DX2                !
 ! D65   D(3,17,18,20)         179.3351         estimate D2E/DX2                !
 ! D66   D(3,17,18,21)           2.3893         estimate D2E/DX2                !
 ! D67   D(19,17,18,20)         -0.5849         estimate D2E/DX2                !
 ! D68   D(19,17,18,21)       -177.5307         estimate D2E/DX2                !
 ! D69   D(3,17,19,22)         179.309          estimate D2E/DX2                !
 ! D70   D(3,17,19,23)           2.2012         estimate D2E/DX2                !
 ! D71   D(18,17,19,22)         -0.771          estimate D2E/DX2                !
 ! D72   D(18,17,19,23)       -177.8787         estimate D2E/DX2                !
 ! D73   D(17,18,20,24)          1.3801         estimate D2E/DX2                !
 ! D74   D(17,18,20,25)       -178.0544         estimate D2E/DX2                !
 ! D75   D(21,18,20,24)        178.3417         estimate D2E/DX2                !
 ! D76   D(21,18,20,25)         -1.0927         estimate D2E/DX2                !
 ! D77   D(17,19,22,24)          1.3311         estimate D2E/DX2                !
 ! D78   D(17,19,22,26)       -178.1163         estimate D2E/DX2                !
 ! D79   D(23,19,22,24)        178.4527         estimate D2E/DX2                !
 ! D80   D(23,19,22,26)         -0.9947         estimate D2E/DX2                !
 ! D81   D(18,20,24,22)         -0.8109         estimate D2E/DX2                !
 ! D82   D(18,20,24,31)        178.3439         estimate D2E/DX2                !
 ! D83   D(25,20,24,22)        178.629          estimate D2E/DX2                !
 ! D84   D(25,20,24,31)         -2.2162         estimate D2E/DX2                !
 ! D85   D(19,22,24,20)         -0.529          estimate D2E/DX2                !
 ! D86   D(19,22,24,31)       -179.6838         estimate D2E/DX2                !
 ! D87   D(26,22,24,20)        178.9238         estimate D2E/DX2                !
 ! D88   D(26,22,24,31)         -0.231          estimate D2E/DX2                !
 ! D89   D(20,24,31,32)        172.4195         estimate D2E/DX2                !
 ! D90   D(20,24,31,33)          7.2254         estimate D2E/DX2                !
 ! D91   D(22,24,31,32)         -8.4517         estimate D2E/DX2                !
 ! D92   D(22,24,31,33)       -173.6457         estimate D2E/DX2                !
 --------------------------------------------------------------------------------
 Trust Radius=3.00D-01 FncErr=1.00D-07 GrdErr=1.00D-06 EigMax=2.50D+02 EigMin=1.00D-04
 Number of steps in this run=    198 maximum allowed number of steps=    198.
 GradGradGradGradGradGradGradGradGradGradGradGradGradGradGradGradGradGrad

                          Input orientation:                          
 ---------------------------------------------------------------------
 Center     Atomic      Atomic             Coordinates (Angstroms)
 Number     Number       Type             X           Y           Z
 ---------------------------------------------------------------------
      1          6           0        0.621981   -1.216876   -0.058200
      2          6           0        0.625721    1.218785    0.042418
      3          6           0       -0.096014    0.001917   -0.004138
      4          6           0        0.172749   -2.548300   -0.232173
      5          6           0        1.303098   -3.359958   -0.281614
      6          6           0        2.413954   -2.509225   -0.157574
      7          1           0        1.337453   -4.438960   -0.408998
      8          6           0        2.422327    2.506716    0.113028
      9          6           0        0.181514    2.554683    0.193718
     10          6           0        1.314712    3.363344    0.224188
     11          1           0        1.352807    4.444626    0.329187
     12          7           0        2.007723   -1.240009   -0.026744
     13          7           0        2.011660    1.236574    0.007158
     14          5           0        2.943603   -0.003890    0.021076
     15          9           0        3.705932   -0.012274    1.184202
     16          9           0        3.784353    0.001829   -1.085708
     17          6           0       -1.557058    0.002491   -0.000240
     18          6           0       -2.290999    0.896703   -0.808202
     19          6           0       -2.284886   -0.893486    0.811385
     20          6           0       -3.673206    0.891229   -0.817532
     21          1           0       -1.760316    1.575407   -1.478159
     22          6           0       -3.667010   -0.888847    0.830541
     23          1           0       -1.748702   -1.574742    1.474381
     24          6           0       -4.399560    0.002061    0.010189
     25          1           0       -4.219037    1.571051   -1.474697
     26          1           0       -4.207907   -1.570750    1.489635
     27          1           0       -0.853432    2.873597    0.289846
     28          1           0        3.484142    2.751798    0.121378
     29          1           0       -0.863700   -2.860919   -0.333347
     30          1           0        3.474860   -2.757772   -0.171903
     31          7           0       -5.751475    0.015325    0.029523
     32          1           0       -6.261194   -0.697937    0.535649
     33          1           0       -6.264860    0.587394   -0.629117
 ---------------------------------------------------------------------
                    Distance matrix (angstroms):
                    1          2          3          4          5
     1  C    0.000000
     2  C    2.437741   0.000000
     3  C    1.415590   1.415569   0.000000
     4  C    1.415898   3.804144   2.574459   0.000000
     5  C    2.259786   4.639906   3.651946   1.392452   0.000000
     6  C    2.211608   4.139545   3.553775   2.242787   1.404683
     7  H    3.319154   5.720176   4.684029   2.227644   1.087038
     8  C    4.139529   2.211684   3.553841   5.543731   5.985506
     9  C    3.805540   1.415922   2.575419   5.120732   6.038780
    10  C    4.640909   2.259841   3.652598   6.038202   6.742311
    11  H    5.721606   3.319178   4.684853   7.113978   7.828607
    12  N    1.386292   2.821415   2.443072   2.262953   2.248475
    13  N    2.820443   1.386502   2.442702   4.214753   4.659781
    14  B    2.620601   2.620681   3.039727   3.770383   3.747809
    15  F    3.536295   3.508116   3.983359   4.573940   4.373696
    16  F    3.541414   3.567998   4.028280   4.502817   4.254974
    17  C    2.497684   2.499143   1.461049   3.090722   4.423316
    18  C    3.676299   3.055249   2.503022   4.274331   5.595891
    19  C    3.051333   3.677585   2.501596   3.141241   4.489071
    20  C    4.844515   4.396314   3.774757   5.192723   6.566841
    21  H    3.935539   2.851755   2.723694   4.721671   5.930772
    22  C    4.392369   4.846730   3.773879   4.315889   5.660853
    23  H    2.845525   3.936013   2.720891   2.748111   3.947657
    24  C    5.167820   5.170581   4.303570   5.241096   6.626359
    25  H    5.763198   5.088950   4.650166   6.148228   7.498818
    26  H    5.084175   5.765406   4.648903   4.807325   6.058858
    27  H    4.362333   2.233275   2.984402   5.542790   6.620755
    28  H    4.896385   3.244524   4.516095   6.259502   6.501763
    29  H    2.232898   4.359307   2.982206   1.087287   2.224125
    30  H    3.244412   4.896584   4.516101   3.309297   2.256372
    31  N    6.492069   6.489770   5.655577   6.460425   7.826643
    32  H    6.928207   7.165661   6.228211   6.738621   8.060570
    33  H    7.142123   6.951958   6.228005   7.171677   8.542619
                    6          7          8          9         10
     6  C    0.000000
     7  H    2.223948   0.000000
     8  C    5.023242   7.049247   0.000000
     9  C    5.545301   7.114106   2.242778   0.000000
    10  C    5.986747   7.827988   1.404628   1.392479   0.000000
    11  H    7.051171   8.914216   2.223981   2.227591   1.087036
    12  N    1.339048   3.290694   3.772185   4.217029   4.661983
    13  N    3.770940   5.730570   1.339073   2.263106   2.248553
    14  B    2.566933   4.736510   2.565799   3.768984   3.746039
    15  F    3.115178   5.267213   3.023304   4.471225   4.246688
    16  F    3.007460   5.115258   3.092983   4.597221   4.372040
    17  C    4.701320   5.317120   4.703135   3.094178   4.426371
    18  C    5.844677   6.464853   5.065200   3.141029   4.489020
    19  C    5.062469   5.213546   5.848669   4.284216   5.605578
    20  C    7.003724   7.326972   6.374266   4.318399   5.663555
    21  H    5.987712   6.849225   4.570964   2.743147   3.943412
    22  C    6.370253   6.259745   7.008901   5.203324   6.577716
    23  H    4.567739   4.612506   5.992417   4.734763   5.944088
    24  C    7.263517   7.267166   7.267876   5.247457   6.633018
    25  H    7.898103   8.254122   6.892319   4.807909   6.059777
    26  H    6.887893   6.525523   7.904478   6.161624   7.513053
    27  H    6.312747   7.665628   3.300979   1.087226   2.223738
    28  H    5.376010   7.523069   1.089764   3.309296   2.256321
    29  H    3.301151   2.709430   6.309416   5.540669   6.617989
    30  H    1.089726   2.729673   5.376230   6.261149   6.503168
    31  N    8.548836   8.383666   8.545469   6.455669   7.821645
    32  H    8.889292   8.522150   9.265633   7.225299   8.601474
    33  H    9.226766   9.116351   8.927586   6.789921   8.116892
                   11         12         13         14         15
    11  H    0.000000
    12  N    5.733295   0.000000
    13  N    3.290803   2.476818   0.000000
    14  B    4.734433   1.551176   1.551600   0.000000
    15  F    5.111967   2.420256   2.411558   1.390711   0.000000
    16  F    5.258592   2.412464   2.421031   1.389915   2.271308
    17  C    5.320564   3.775205   3.776078   4.500716   5.394644
    18  C    5.211404   4.863664   4.392402   5.375856   6.384285
    19  C    6.477713   4.387372   4.862535   5.362189   6.066748
    20  C    6.261182   6.118862   5.754744   6.729537   7.699022
    21  H    4.603309   4.922529   4.068019   5.183506   6.284009
    22  C    7.341379   5.749856   6.119041   6.718526   7.433285
    23  H    6.867577   4.059083   4.919000   5.157266   5.681421
    24  C    7.275154   6.526667   6.528995   7.343173   8.190086
    25  H    6.523563   6.983636   6.413217   7.484730   8.507749
    26  H    8.273628   6.406469   6.982966   7.466981   8.071616
    27  H    2.708721   5.020776   3.311874   4.771755   5.469545
    28  H    2.729733   4.258671   2.115928   2.809993   2.969660
    29  H    7.663083   3.311559   5.017279   4.773236   5.594575
    30  H    7.525207   2.115932   4.257677   2.811288   3.070859
    31  N    8.377310   7.860292   7.858639   8.695103   9.527675
    32  H    9.190299   8.305728   8.512447   9.245257  10.011711
    33  H    8.592173   8.493402   8.326288   9.250306  10.152065
                   16         17         18         19         20
    16  F    0.000000
    17  C    5.450588   0.000000
    18  C    6.147171   1.411059   0.000000
    19  C    6.421543   1.411114   2.414099   0.000000
    20  C    7.515194   2.436371   1.382249   2.786756   0.000000
    21  H    5.776982   2.167861   1.091378   3.407729   2.136276
    22  C    7.745200   2.436509   2.786947   1.382265   2.425872
    23  H    6.297168   2.167694   3.407684   1.091406   3.877834
    24  C    8.256962   2.842521   2.432319   2.432235   1.415391
    25  H    8.165049   3.423527   2.148556   3.878280   1.091767
    26  H    8.542928   3.423714   3.878520   2.148655   3.416177
    27  H    5.625678   2.970268   2.679630   4.063493   3.620386
    28  H    3.018197   5.743446   6.136591   6.859001   7.454589
    29  H    5.510514   2.964932   4.047517   2.683463   4.712364
    30  H    2.923392   5.741839   6.856033   6.133277   8.051515
    31  N    9.600830   4.194542   3.667902   3.668036   2.409131
    32  H   10.199583   4.786092   4.484558   3.990651   3.324790
    33  H   10.076609   4.785499   3.989902   4.484222   2.616197
                   21         22         23         24         25
    21  H    0.000000
    22  C    3.877902   0.000000
    23  H    4.317530   2.136560   0.000000
    24  C    3.414119   1.415388   3.414266   0.000000
    25  H    2.458727   3.416131   4.969470   2.167765   0.000000
    26  H    4.969588   1.091772   2.459256   2.167770   4.319526
    27  H    2.373516   4.729118   4.689600   4.571537   4.017155
    28  H    5.607741   8.055817   6.923310   8.350220   7.954910
    29  H    4.668565   3.619703   2.388590   4.562563   5.674797
    30  H    6.920247   7.450106   5.603161   8.346037   8.923678
    31  N    4.542721   2.409181   4.542920   1.352118   2.651665
    32  H    5.429679   2.617861   4.691758   2.057131   3.655161
    33  H    4.689132   3.325464   5.430950   2.056859   2.422391
                   26         27         28         29         30
    26  H    0.000000
    27  H    5.695982   0.000000
    28  H    8.928839   4.342553   0.000000
    29  H    4.021383   5.768288   7.114288   0.000000
    30  H    7.949506   7.117559   5.517378   4.342788   0.000000
    31  N    2.651445   5.676999   9.632930   5.682851   9.636176
    32  H    2.426495   6.485381  10.346201   5.879336   9.976688
    33  H    3.657561   5.945988  10.014536   6.414895  10.308313
                   31         32         33
    31  N    0.000000
    32  H    1.012284   0.000000
    33  H    1.012242   1.734580   0.000000
 Stoichiometry    C15H12BF2N3
 Framework group  C1[X(C15H12BF2N3)]
 Deg. of freedom    93
 Full point group                 C1      NOp   1
 Largest Abelian subgroup         C1      NOp   1
 Largest concise Abelian subgroup C1      NOp   1
                         Standard orientation:                         
 ---------------------------------------------------------------------
 Center     Atomic      Atomic             Coordinates (Angstroms)
 Number     Number       Type             X           Y           Z
 ---------------------------------------------------------------------
      1          6           0        0.621981   -1.216876   -0.058200
      2          6           0        0.625721    1.218785    0.042418
      3          6           0       -0.096014    0.001917   -0.004138
      4          6           0        0.172749   -2.548300   -0.232173
      5          6           0        1.303098   -3.359958   -0.281614
      6          6           0        2.413954   -2.509225   -0.157574
      7          1           0        1.337453   -4.438960   -0.408998
      8          6           0        2.422327    2.506716    0.113028
      9          6           0        0.181514    2.554683    0.193718
     10          6           0        1.314712    3.363344    0.224188
     11          1           0        1.352807    4.444626    0.329187
     12          7           0        2.007723   -1.240009   -0.026744
     13          7           0        2.011660    1.236574    0.007158
     14          5           0        2.943603   -0.003890    0.021076
     15          9           0        3.705932   -0.012274    1.184202
     16          9           0        3.784353    0.001829   -1.085708
     17          6           0       -1.557058    0.002491   -0.000240
     18          6           0       -2.290999    0.896703   -0.808202
     19          6           0       -2.284886   -0.893486    0.811385
     20          6           0       -3.673206    0.891229   -0.817532
     21          1           0       -1.760316    1.575407   -1.478159
     22          6           0       -3.667010   -0.888847    0.830541
     23          1           0       -1.748702   -1.574742    1.474381
     24          6           0       -4.399560    0.002061    0.010189
     25          1           0       -4.219037    1.571051   -1.474697
     26          1           0       -4.207907   -1.570750    1.489635
     27          1           0       -0.853432    2.873597    0.289846
     28          1           0        3.484142    2.751798    0.121378
     29          1           0       -0.863700   -2.860919   -0.333347
     30          1           0        3.474860   -2.757772   -0.171903
     31          7           0       -5.751475    0.015325    0.029523
     32          1           0       -6.261194   -0.697937    0.535649
     33          1           0       -6.264860    0.587394   -0.629117
 ---------------------------------------------------------------------
 Rotational constants (GHZ):           0.5795983           0.2151487           0.1666608
 Standard basis: def2TZVP (5D, 7F)
 There are   828 symmetry adapted cartesian basis functions of A   symmetry.
 There are   723 symmetry adapted basis functions of A   symmetry.
   723 basis functions,  1167 primitive gaussians,   828 cartesian basis functions
    73 alpha electrons       73 beta electrons
       nuclear repulsion energy      1590.1687324607 Hartrees.
 NAtoms=   33 NActive=   33 NUniq=   33 SFac= 1.00D+00 NAtFMM=   60 NAOKFM=F Big=F
 Integral buffers will be    131072 words long.
 Raffenetti 2 integral format.
 Two-electron integral symmetry is turned on.
 ------------------------------------------------------------------------------
 Polarizable Continuum Model (PCM)
 =================================
 Model                : PCM.
 Atomic radii         : SMD-Coulomb.
 Polarization charges : Total charges.
 Charge compensation  : None.
 Solution method      : On-the-fly selection.
 Cavity type          : VdW (van der Waals Surface) (Alpha=1.000).
 Cavity algorithm     : GePol (No added spheres)
                        Default sphere list used, NSphG=   33.
                        Lebedev-Laikov grids with approx.  5.0 points / Ang**2.
                        Smoothing algorithm: York/Karplus (Gamma=1.0000).
                        Polarization charges: spherical gaussians, with
                                              point-specific exponents (IZeta= 3).
                        Self-potential: point-specific (ISelfS= 7).
                        Self-field    : sphere-specific E.n sum rule (ISelfD= 2).
 1st derivatives      : Analytical E(r).r(x)/FMM algorithm (CHGder, D1EAlg=3).
                        Cavity 1st derivative terms included.
 Solvent              : Ethanol, Eps=  24.852000 Eps(inf)=   1.852593
 ------------------------------------------------------------------------------
 ------------------------------------------------------------------------------
 Atomic radii for non-electrostatic terms: SMD-CDS.
 ------------------------------------------------------------------------------
 Nuclear repulsion after PCM non-electrostatic terms =     1590.1679355899 Hartrees.
 One-electron integrals computed using PRISM.
   1 Symmetry operations used in ECPInt.
 ECPInt:  NShTT=   39060 NPrTT=  121776 LenC2=   34365 LenP2D=   76755.
 LDataN:  DoStor=T MaxTD1= 6 Len=  172
 NBasis=   723 RedAO= T EigKep=  8.06D-06  NBF=   723
 NBsUse=   723 1.00D-06 EigRej= -1.00D+00 NBFU=   723
 ExpMin= 6.06D-02 ExpMax= 3.55D+04 ExpMxC= 1.21D+03 IAcc=3 IRadAn=         5 AccDes= 0.00D+00
 Harris functional with IExCor= 1009 and IRadAn=       5 diagonalized for initial guess.
 HarFok:  IExCor= 1009 AccDes= 0.00D+00 IRadAn=         5 IDoV= 1 UseB2=F ITyADJ=14
 ICtDFT=  3500011 ScaDFX=  1.000000  1.000000  1.000000  1.000000
 FoFCou: FMM=F IPFlag=           0 FMFlag=      100000 FMFlg1=           0
         NFxFlg=           0 DoJE=T BraDBF=F KetDBF=T FulRan=T
         wScrn=  0.000000 ICntrl=       500 IOpCl=  0 I1Cent=   200000004 NGrid=           0
         NMat0=    1 NMatS0=      1 NMatT0=    0 NMatD0=    1 NMtDS0=    0 NMtDT0=    0
 Petite list used in FoFCou.
 Requested convergence on RMS density matrix=1.00D-08 within 128 cycles.
 Requested convergence on MAX density matrix=1.00D-06.
 Requested convergence on             energy=1.00D-06.
 No special actions if energy rises.
 Inv3:  Mode=1 IEnd=    19691532.
 Iteration    1 A*A^-1 deviation from unit magnitude is 5.77D-15 for   2560.
 Iteration    1 A*A^-1 deviation from orthogonality  is 3.19D-15 for   2560    578.
 Iteration    1 A^-1*A deviation from unit magnitude is 5.77D-15 for   2560.
 Iteration    1 A^-1*A deviation from orthogonality  is 1.45D-15 for   2042    495.
 Error on total polarization charges =  0.04884
 SCF Done:  E(RM062X) =  -967.829455353     A.U. after   14 cycles
            NFock= 14  Conv=0.43D-08     -V/T= 2.0051
 SMD-CDS (non-electrostatic) energy       (kcal/mol) =      -0.50
 (included in total energy above)

 **********************************************************************

            Population analysis using the SCF Density.

 **********************************************************************

 Orbital symmetries:
       Occupied  (A) (A) (A) (A) (A) (A) (A) (A) (A) (A) (A) (A)
                 (A) (A) (A) (A) (A) (A) (A) (A) (A) (A) (A) (A)
                 (A) (A) (A) (A) (A) (A) (A) (A) (A) (A) (A) (A)
                 (A) (A) (A) (A) (A) (A) (A) (A) (A) (A) (A) (A)
                 (A) (A) (A) (A) (A) (A) (A) (A) (A) (A) (A) (A)
                 (A) (A) (A) (A) (A) (A) (A) (A) (A) (A) (A) (A)
                 (A)
       Virtual   (A) (A) (A) (A) (A) (A) (A) (A) (A) (A) (A) (A)
                 (A) (A) (A) (A) (A) (A) (A) (A) (A) (A) (A) (A)
                 (A) (A) (A) (A) (A) (A) (A) (A) (A) (A) (A) (A)
                 (A) (A) (A) (A) (A) (A) (A) (A) (A) (A) (A) (A)
                 (A) (A) (A) (A) (A) (A) (A) (A) (A) (A) (A) (A)
                 (A) (A) (A) (A) (A) (A) (A) (A) (A) (A) (A) (A)
                 (A) (A) (A) (A) (A) (A) (A) (A) (A) (A) (A) (A)
                 (A) (A) (A) (A) (A) (A) (A) (A) (A) (A) (A) (A)
                 (A) (A) (A) (A) (A) (A) (A) (A) (A) (A) (A) (A)
                 (A) (A) (A) (A) (A) (A) (A) (A) (A) (A) (A) (A)
                 (A) (A) (A) (A) (A) (A) (A) (A) (A) (A) (A) (A)
                 (A) (A) (A) (A) (A) (A) (A) (A) (A) (A) (A) (A)
                 (A) (A) (A) (A) (A) (A) (A) (A) (A) (A) (A) (A)
                 (A) (A) (A) (A) (A) (A) (A) (A) (A) (A) (A) (A)
                 (A) (A) (A) (A) (A) (A) (A) (A) (A) (A) (A) (A)
                 (A) (A) (A) (A) (A) (A) (A) (A) (A) (A) (A) (A)
                 (A) (A) (A) (A) (A) (A) (A) (A) (A) (A) (A) (A)
                 (A) (A) (A) (A) (A) (A) (A) (A) (A) (A) (A) (A)
                 (A) (A) (A) (A) (A) (A) (A) (A) (A) (A) (A) (A)
                 (A) (A) (A) (A) (A) (A) (A) (A) (A) (A) (A) (A)
                 (A) (A) (A) (A) (A) (A) (A) (A) (A) (A) (A) (A)
                 (A) (A) (A) (A) (A) (A) (A) (A) (A) (A) (A) (A)
                 (A) (A) (A) (A) (A) (A) (A) (A) (A) (A) (A) (A)
                 (A) (A) (A) (A) (A) (A) (A) (A) (A) (A) (A) (A)
                 (A) (A) (A) (A) (A) (A) (A) (A) (A) (A) (A) (A)
                 (A) (A) (A) (A) (A) (A) (A) (A) (A) (A) (A) (A)
                 (A) (A) (A) (A) (A) (A) (A) (A) (A) (A) (A) (A)
                 (A) (A) (A) (A) (A) (A) (A) (A) (A) (A) (A) (A)
                 (A) (A) (A) (A) (A) (A) (A) (A) (A) (A) (A) (A)
                 (A) (A) (A) (A) (A) (A) (A) (A) (A) (A) (A) (A)
                 (A) (A) (A) (A) (A) (A) (A) (A) (A) (A) (A) (A)
                 (A) (A) (A) (A) (A) (A) (A) (A) (A) (A) (A) (A)
                 (A) (A) (A) (A) (A) (A) (A) (A) (A) (A) (A) (A)
                 (A) (A) (A) (A) (A) (A) (A) (A) (A) (A) (A) (A)
                 (A) (A) (A) (A) (A) (A) (A) (A) (A) (A) (A) (A)
                 (A) (A) (A) (A) (A) (A) (A) (A) (A) (A) (A) (A)
                 (A) (A) (A) (A) (A) (A) (A) (A) (A) (A) (A) (A)
                 (A) (A) (A) (A) (A) (A) (A) (A) (A) (A) (A) (A)
                 (A) (A) (A) (A) (A) (A) (A) (A) (A) (A) (A) (A)
                 (A) (A) (A) (A) (A) (A) (A) (A) (A) (A) (A) (A)
                 (A) (A) (A) (A) (A) (A) (A) (A) (A) (A) (A) (A)
                 (A) (A) (A) (A) (A) (A) (A) (A) (A) (A) (A) (A)
                 (A) (A) (A) (A) (A) (A) (A) (A) (A) (A) (A) (A)
                 (A) (A) (A) (A) (A) (A) (A) (A) (A) (A) (A) (A)
                 (A) (A) (A) (A) (A) (A) (A) (A) (A) (A) (A) (A)
                 (A) (A) (A) (A) (A) (A) (A) (A) (A) (A) (A) (A)
                 (A) (A) (A) (A) (A) (A) (A) (A) (A) (A) (A) (A)
                 (A) (A) (A) (A) (A) (A) (A) (A) (A) (A) (A) (A)
                 (A) (A) (A) (A) (A) (A) (A) (A) (A) (A) (A) (A)
                 (A) (A) (A) (A) (A) (A) (A) (A) (A) (A) (A) (A)
                 (A) (A) (A) (A) (A) (A) (A) (A) (A) (A) (A) (A)
                 (A) (A) (A) (A) (A) (A) (A) (A) (A) (A) (A) (A)
                 (A) (A) (A) (A) (A) (A) (A) (A) (A) (A) (A) (A)
                 (A) (A) (A) (A) (A) (A) (A) (A) (A) (A) (A) (A)
                 (A) (A)
 The electronic state is 1-A.
 Alpha  occ. eigenvalues --  -25.20532 -25.20485 -14.78216 -14.78208 -14.75870
 Alpha  occ. eigenvalues --  -10.60603 -10.59902 -10.58375 -10.58373 -10.58121
 Alpha  occ. eigenvalues --  -10.58114 -10.55581 -10.55433 -10.55415 -10.55125
 Alpha  occ. eigenvalues --  -10.55119 -10.54113 -10.54111 -10.53805 -10.53800
 Alpha  occ. eigenvalues --   -7.12769  -1.32708  -1.29400  -1.10796  -1.08821
 Alpha  occ. eigenvalues --   -1.04048  -0.96660  -0.91342  -0.89017  -0.87561
 Alpha  occ. eigenvalues --   -0.85026  -0.82618  -0.82066  -0.75352  -0.70656
 Alpha  occ. eigenvalues --   -0.69554  -0.69192  -0.66216  -0.65971  -0.65345
 Alpha  occ. eigenvalues --   -0.61861  -0.60911  -0.60312  -0.59246  -0.58518
 Alpha  occ. eigenvalues --   -0.58226  -0.54407  -0.53438  -0.52043  -0.51690
 Alpha  occ. eigenvalues --   -0.51243  -0.51105  -0.50193  -0.49224  -0.48834
 Alpha  occ. eigenvalues --   -0.47959  -0.47376  -0.47347  -0.46914  -0.46853
 Alpha  occ. eigenvalues --   -0.45515  -0.45018  -0.44516  -0.42855  -0.41966
 Alpha  occ. eigenvalues --   -0.40501  -0.39668  -0.35101  -0.32539  -0.32000
 Alpha  occ. eigenvalues --   -0.31566  -0.26477  -0.25580
 Alpha virt. eigenvalues --   -0.08256   0.01608   0.03033   0.05998   0.07372
 Alpha virt. eigenvalues --    0.07720   0.08121   0.09160   0.09594   0.10158
 Alpha virt. eigenvalues --    0.10579   0.10987   0.12003   0.12184   0.12612
 Alpha virt. eigenvalues --    0.12741   0.13212   0.14067   0.14804   0.15918
 Alpha virt. eigenvalues --    0.16225   0.16376   0.18002   0.18240   0.19668
 Alpha virt. eigenvalues --    0.19897   0.20100   0.20569   0.22003   0.22356
 Alpha virt. eigenvalues --    0.22912   0.23204   0.23416   0.24305   0.25182
 Alpha virt. eigenvalues --    0.25377   0.25841   0.25982   0.26347   0.27647
 Alpha virt. eigenvalues --    0.27834   0.29134   0.29875   0.29993   0.30595
 Alpha virt. eigenvalues --    0.30741   0.32226   0.32419   0.32805   0.33218
 Alpha virt. eigenvalues --    0.33673   0.33800   0.34405   0.34570   0.35455
 Alpha virt. eigenvalues --    0.35915   0.35999   0.36601   0.37637   0.38175
 Alpha virt. eigenvalues --    0.38566   0.38699   0.39033   0.39692   0.40252
 Alpha virt. eigenvalues --    0.40675   0.40993   0.41749   0.42076   0.42401
 Alpha virt. eigenvalues --    0.42638   0.43883   0.44115   0.44529   0.44590
 Alpha virt. eigenvalues --    0.45264   0.45714   0.46126   0.46333   0.47580
 Alpha virt. eigenvalues --    0.47796   0.48312   0.48574   0.49071   0.49309
 Alpha virt. eigenvalues --    0.49635   0.50394   0.50993   0.51651   0.51886
 Alpha virt. eigenvalues --    0.52187   0.53794   0.53906   0.54613   0.55440
 Alpha virt. eigenvalues --    0.55702   0.55878   0.57039   0.57335   0.57421
 Alpha virt. eigenvalues --    0.58828   0.59148   0.60191   0.61547   0.62439
 Alpha virt. eigenvalues --    0.62941   0.63164   0.64288   0.64616   0.65203
 Alpha virt. eigenvalues --    0.66723   0.66939   0.67114   0.68412   0.68714
 Alpha virt. eigenvalues --    0.69022   0.69390   0.69640   0.70451   0.72097
 Alpha virt. eigenvalues --    0.72708   0.72883   0.73112   0.74258   0.74655
 Alpha virt. eigenvalues --    0.74932   0.75317   0.75999   0.76098   0.76778
 Alpha virt. eigenvalues --    0.77438   0.77682   0.77922   0.78590   0.79636
 Alpha virt. eigenvalues --    0.80186   0.80293   0.80991   0.82038   0.82971
 Alpha virt. eigenvalues --    0.84205   0.84509   0.85701   0.86429   0.86815
 Alpha virt. eigenvalues --    0.88078   0.88599   0.88938   0.90104   0.90513
 Alpha virt. eigenvalues --    0.91276   0.91834   0.93465   0.94413   0.96229
 Alpha virt. eigenvalues --    0.97149   0.98226   0.98794   0.99314   1.00206
 Alpha virt. eigenvalues --    1.00334   1.00735   1.01643   1.02401   1.02779
 Alpha virt. eigenvalues --    1.02945   1.04564   1.05887   1.06859   1.07099
 Alpha virt. eigenvalues --    1.08571   1.08814   1.10162   1.11161   1.11833
 Alpha virt. eigenvalues --    1.13609   1.13857   1.14556   1.14802   1.16319
 Alpha virt. eigenvalues --    1.17194   1.17767   1.18067   1.19509   1.21318
 Alpha virt. eigenvalues --    1.21882   1.22992   1.23862   1.24465   1.25030
 Alpha virt. eigenvalues --    1.25676   1.25926   1.27329   1.29628   1.29840
 Alpha virt. eigenvalues --    1.30200   1.30933   1.31694   1.32098   1.32664
 Alpha virt. eigenvalues --    1.33774   1.34834   1.36327   1.36783   1.38717
 Alpha virt. eigenvalues --    1.39162   1.41092   1.41565   1.42188   1.42428
 Alpha virt. eigenvalues --    1.43444   1.43930   1.43958   1.45318   1.47277
 Alpha virt. eigenvalues --    1.48637   1.49516   1.50200   1.51525   1.51657
 Alpha virt. eigenvalues --    1.52297   1.52403   1.53046   1.53654   1.54843
 Alpha virt. eigenvalues --    1.55748   1.56242   1.57103   1.58758   1.58908
 Alpha virt. eigenvalues --    1.59192   1.59970   1.60941   1.62837   1.63250
 Alpha virt. eigenvalues --    1.64021   1.64284   1.64836   1.65298   1.66030
 Alpha virt. eigenvalues --    1.66472   1.67626   1.68674   1.69108   1.69932
 Alpha virt. eigenvalues --    1.70334   1.72633   1.73511   1.74095   1.74448
 Alpha virt. eigenvalues --    1.76112   1.76553   1.77841   1.78290   1.79018
 Alpha virt. eigenvalues --    1.80328   1.81688   1.82006   1.82871   1.83026
 Alpha virt. eigenvalues --    1.84274   1.85006   1.85265   1.86647   1.87355
 Alpha virt. eigenvalues --    1.87902   1.89344   1.90739   1.91043   1.93315
 Alpha virt. eigenvalues --    1.94263   1.94944   1.95510   1.95907   1.96533
 Alpha virt. eigenvalues --    1.98359   1.99296   2.00783   2.02585   2.02924
 Alpha virt. eigenvalues --    2.04623   2.04943   2.05758   2.09190   2.09890
 Alpha virt. eigenvalues --    2.10558   2.11427   2.11937   2.12676   2.13906
 Alpha virt. eigenvalues --    2.14928   2.15849   2.16344   2.16535   2.19614
 Alpha virt. eigenvalues --    2.19740   2.20545   2.21758   2.22561   2.23832
 Alpha virt. eigenvalues --    2.24136   2.24700   2.25118   2.26566   2.27214
 Alpha virt. eigenvalues --    2.27545   2.29216   2.29890   2.30353   2.31493
 Alpha virt. eigenvalues --    2.31552   2.33113   2.35786   2.36059   2.38044
 Alpha virt. eigenvalues --    2.39446   2.39750   2.40445   2.41058   2.41555
 Alpha virt. eigenvalues --    2.43931   2.44162   2.48119   2.49630   2.50227
 Alpha virt. eigenvalues --    2.51573   2.52546   2.53243   2.54351   2.54707
 Alpha virt. eigenvalues --    2.55010   2.56379   2.57949   2.58449   2.58978
 Alpha virt. eigenvalues --    2.59866   2.60441   2.61389   2.62235   2.63826
 Alpha virt. eigenvalues --    2.64082   2.64536   2.64663   2.65588   2.66285
 Alpha virt. eigenvalues --    2.67612   2.67855   2.69002   2.69931   2.70133
 Alpha virt. eigenvalues --    2.70418   2.70913   2.72551   2.72775   2.73395
 Alpha virt. eigenvalues --    2.74232   2.75054   2.76270   2.76926   2.77750
 Alpha virt. eigenvalues --    2.78252   2.78785   2.79688   2.79960   2.80851
 Alpha virt. eigenvalues --    2.81861   2.82294   2.82784   2.83468   2.83809
 Alpha virt. eigenvalues --    2.86314   2.86452   2.86710   2.86793   2.88210
 Alpha virt. eigenvalues --    2.89833   2.90136   2.91377   2.91733   2.92295
 Alpha virt. eigenvalues --    2.93593   2.93941   2.95503   2.96047   2.96489
 Alpha virt. eigenvalues --    2.97473   2.98231   2.99944   3.00060   3.00873
 Alpha virt. eigenvalues --    3.01205   3.02058   3.02734   3.03060   3.03462
 Alpha virt. eigenvalues --    3.05290   3.05456   3.07032   3.07405   3.08626
 Alpha virt. eigenvalues --    3.09475   3.09873   3.10362   3.10932   3.11220
 Alpha virt. eigenvalues --    3.11968   3.12764   3.13283   3.13646   3.14699
 Alpha virt. eigenvalues --    3.15090   3.15872   3.16111   3.16679   3.19339
 Alpha virt. eigenvalues --    3.19419   3.20011   3.20441   3.21180   3.21937
 Alpha virt. eigenvalues --    3.22788   3.22898   3.23115   3.24821   3.25850
 Alpha virt. eigenvalues --    3.26569   3.26661   3.27457   3.28713   3.29653
 Alpha virt. eigenvalues --    3.30049   3.31643   3.31964   3.32352   3.33016
 Alpha virt. eigenvalues --    3.33922   3.34823   3.34888   3.36207   3.36914
 Alpha virt. eigenvalues --    3.38614   3.38900   3.39458   3.39872   3.41360
 Alpha virt. eigenvalues --    3.42116   3.43308   3.43529   3.44926   3.45510
 Alpha virt. eigenvalues --    3.46223   3.46904   3.46993   3.48370   3.48869
 Alpha virt. eigenvalues --    3.49514   3.50390   3.51265   3.51986   3.52747
 Alpha virt. eigenvalues --    3.53907   3.54307   3.54675   3.54966   3.56240
 Alpha virt. eigenvalues --    3.56944   3.57695   3.59391   3.60257   3.60415
 Alpha virt. eigenvalues --    3.62789   3.63468   3.64060   3.65525   3.68898
 Alpha virt. eigenvalues --    3.69305   3.70795   3.72766   3.74374   3.75719
 Alpha virt. eigenvalues --    3.76584   3.77502   3.79506   3.80027   3.80686
 Alpha virt. eigenvalues --    3.81181   3.81347   3.83049   3.84142   3.86264
 Alpha virt. eigenvalues --    3.87730   3.92126   3.92628   3.94877   3.95952
 Alpha virt. eigenvalues --    3.96920   3.98188   4.00407   4.01909   4.02765
 Alpha virt. eigenvalues --    4.03322   4.03415   4.05129   4.06711   4.08240
 Alpha virt. eigenvalues --    4.08591   4.09289   4.10022   4.10886   4.11755
 Alpha virt. eigenvalues --    4.12860   4.13877   4.16002   4.17275   4.18182
 Alpha virt. eigenvalues --    4.18677   4.19992   4.20855   4.22099   4.22828
 Alpha virt. eigenvalues --    4.24142   4.25461   4.26365   4.26621   4.27490
 Alpha virt. eigenvalues --    4.28769   4.29857   4.30347   4.31049   4.35444
 Alpha virt. eigenvalues --    4.36362   4.36948   4.38051   4.38915   4.43771
 Alpha virt. eigenvalues --    4.49512   4.49982   4.51129   4.52516   4.52666
 Alpha virt. eigenvalues --    4.56092   4.58014   4.59187   4.62673   4.63249
 Alpha virt. eigenvalues --    4.63526   4.68276   4.70353   4.70685   4.70941
 Alpha virt. eigenvalues --    4.74508   4.76063   4.76785   4.77811   4.78551
 Alpha virt. eigenvalues --    4.79423   4.80837   4.81343   4.82759   4.85005
 Alpha virt. eigenvalues --    4.85339   4.88661   4.90060   4.92833   4.93884
 Alpha virt. eigenvalues --    4.96104   4.98205   4.99693   5.01957   5.02308
 Alpha virt. eigenvalues --    5.05461   5.08355   5.11683   5.12772   5.13988
 Alpha virt. eigenvalues --    5.14775   5.16181   5.21554   5.22327   5.23526
 Alpha virt. eigenvalues --    5.26454   5.29242   5.29371   5.31368   5.33878
 Alpha virt. eigenvalues --    5.35015   5.39039   5.40408   5.45107   5.46016
 Alpha virt. eigenvalues --    5.47073   5.49312   5.54776   5.55567   5.57164
 Alpha virt. eigenvalues --    5.72858   5.73195   5.78210   5.81407   5.84835
 Alpha virt. eigenvalues --    5.89397   5.89458   5.94659   5.96029   6.14502
 Alpha virt. eigenvalues --    6.93617   6.93723   6.96416   6.96553   6.99157
 Alpha virt. eigenvalues --    6.99708   7.05571   7.11351   7.17473   7.22026
 Alpha virt. eigenvalues --    7.24314   7.26753   7.34325   7.36106   8.42536
 Alpha virt. eigenvalues --    8.44853   8.54539   8.56651   8.82059   8.84896
 Alpha virt. eigenvalues --    8.87777   8.90021   8.91615   8.99300  15.89528
 Alpha virt. eigenvalues --   22.41225  22.49569  22.52679  22.74770  22.76792
 Alpha virt. eigenvalues --   22.78371  22.84324  22.86134  22.86981  22.88454
 Alpha virt. eigenvalues --   23.02207  23.13292  23.27590  23.37545  23.63691
 Alpha virt. eigenvalues --   32.20508  33.02881  33.06966  57.22478  57.46636
          Condensed to atoms (all electrons):
               1          2          3          4          5          6
     1  C    5.597853  -0.115490   0.169421   0.467542  -0.096687  -0.167141
     2  C   -0.115490   5.594506   0.159575   0.026605   0.000078   0.000561
     3  C    0.169421   0.159575   5.542348  -0.086077   0.021217  -0.015761
     4  C    0.467542   0.026605  -0.086077   5.139510   0.500722  -0.050846
     5  C   -0.096687   0.000078   0.021217   0.500722   5.029973   0.527679
     6  C   -0.167141   0.000561  -0.015761  -0.050846   0.527679   4.997878
     7  H    0.004774  -0.000000  -0.000460  -0.025952   0.415390  -0.027804
     8  C   -0.000447  -0.168202  -0.012532   0.000073   0.000077  -0.000744
     9  C    0.027001   0.465049  -0.081439   0.000195  -0.000041   0.000133
    10  C    0.000556  -0.097874   0.018109  -0.000014  -0.000015   0.000068
    11  H    0.000003   0.004795  -0.000475  -0.000000   0.000000  -0.000000
    12  N    0.364693  -0.023183  -0.022944  -0.120865  -0.092508   0.444596
    13  N   -0.023814   0.362409  -0.021982  -0.000535  -0.000364   0.000272
    14  B   -0.064821  -0.064826   0.005990   0.002897  -0.005958  -0.018264
    15  F   -0.005906  -0.006298   0.003042   0.000717  -0.000456  -0.002326
    16  F   -0.006563  -0.006699   0.002693   0.000075  -0.000356  -0.004125
    17  C   -0.263842  -0.256929   0.384571  -0.044113   0.005631  -0.004995
    18  C    0.024006   0.013830  -0.105780   0.000865  -0.000254   0.000270
    19  C    0.011071   0.028425  -0.109980   0.010513  -0.000519   0.000416
    20  C   -0.002796   0.002519   0.011900  -0.000156  -0.000015  -0.000001
    21  H    0.001859   0.000309   0.002681   0.000153  -0.000010  -0.000002
    22  C    0.004170  -0.004364   0.012497  -0.000357  -0.000054  -0.000001
    23  H    0.000361   0.001969   0.001977  -0.004864   0.000101   0.000074
    24  C    0.000997   0.003003  -0.008158   0.000059  -0.000032   0.000005
    25  H    0.000022   0.000087  -0.000069   0.000003   0.000000   0.000000
    26  H    0.000187  -0.000019  -0.000114  -0.000074  -0.000007   0.000001
    27  H   -0.001248  -0.027336  -0.002130  -0.000029   0.000004  -0.000004
    28  H    0.000265   0.009675  -0.000942   0.000001   0.000001  -0.000007
    29  H   -0.027581  -0.001235  -0.002414   0.403770  -0.012164   0.003325
    30  H    0.009748   0.000258  -0.000940   0.004616  -0.022560   0.409023
    31  N   -0.000044  -0.000003  -0.000039   0.000023   0.000000  -0.000000
    32  H   -0.000001   0.000003   0.000004   0.000001  -0.000000   0.000000
    33  H    0.000000   0.000002   0.000001   0.000000  -0.000000   0.000000
               7          8          9         10         11         12
     1  C    0.004774  -0.000447   0.027001   0.000556   0.000003   0.364693
     2  C   -0.000000  -0.168202   0.465049  -0.097874   0.004795  -0.023183
     3  C   -0.000460  -0.012532  -0.081439   0.018109  -0.000475  -0.022944
     4  C   -0.025952   0.000073   0.000195  -0.000014  -0.000000  -0.120865
     5  C    0.415390   0.000077  -0.000041  -0.000015   0.000000  -0.092508
     6  C   -0.027804  -0.000744   0.000133   0.000068  -0.000000   0.444596
     7  H    0.440036  -0.000000  -0.000000   0.000000  -0.000000   0.003675
     8  C   -0.000000   4.996614  -0.052906   0.528514  -0.027762   0.000411
     9  C   -0.000000  -0.052906   5.138600   0.505053  -0.025980  -0.000352
    10  C    0.000000   0.528514   0.505053   5.027555   0.415301  -0.000445
    11  H   -0.000000  -0.027762  -0.025980   0.415301   0.440069   0.000005
    12  N    0.003675   0.000411  -0.000352  -0.000445   0.000005   6.351644
    13  N    0.000006   0.444705  -0.119681  -0.092661   0.003656  -0.039934
    14  B   -0.000041  -0.017766   0.002916  -0.006126  -0.000044   0.347066
    15  F    0.000003  -0.005174   0.000044  -0.000497   0.000006  -0.045468
    16  F    0.000004  -0.001288   0.000702  -0.000354   0.000002  -0.042728
    17  C    0.000044  -0.004308  -0.043303   0.004888   0.000035   0.009427
    18  C    0.000002   0.000408   0.010526  -0.000617   0.000005  -0.000489
    19  C    0.000004   0.000273   0.000729  -0.000260   0.000002   0.000372
    20  C   -0.000000  -0.000011  -0.000196  -0.000029   0.000000   0.000017
    21  H    0.000000   0.000099  -0.004779   0.000050  -0.000001  -0.000017
    22  C   -0.000000  -0.000006  -0.000052  -0.000003  -0.000000  -0.000018
    23  H   -0.000000  -0.000001   0.000137  -0.000011   0.000000  -0.000094
    24  C    0.000000   0.000009  -0.000259  -0.000050   0.000000   0.000004
    25  H   -0.000000   0.000001  -0.000025  -0.000004  -0.000000  -0.000000
    26  H    0.000000   0.000000   0.000006   0.000000  -0.000000   0.000001
    27  H   -0.000000   0.003224   0.402866  -0.011813  -0.001074   0.000044
    28  H   -0.000000   0.409246   0.004691  -0.022683  -0.000510  -0.000010
    29  H   -0.001088  -0.000004  -0.000024   0.000004  -0.000000   0.003598
    30  H   -0.000499  -0.000009   0.000001   0.000001  -0.000000  -0.031970
    31  N    0.000000  -0.000000   0.000012   0.000000   0.000000  -0.000000
    32  H    0.000000   0.000000  -0.000000  -0.000000   0.000000  -0.000000
    33  H   -0.000000   0.000000  -0.000001  -0.000000  -0.000000   0.000000
              13         14         15         16         17         18
     1  C   -0.023814  -0.064821  -0.005906  -0.006563  -0.263842   0.024006
     2  C    0.362409  -0.064826  -0.006298  -0.006699  -0.256929   0.013830
     3  C   -0.021982   0.005990   0.003042   0.002693   0.384571  -0.105780
     4  C   -0.000535   0.002897   0.000717   0.000075  -0.044113   0.000865
     5  C   -0.000364  -0.005958  -0.000456  -0.000356   0.005631  -0.000254
     6  C    0.000272  -0.018264  -0.002326  -0.004125  -0.004995   0.000270
     7  H    0.000006  -0.000041   0.000003   0.000004   0.000044   0.000002
     8  C    0.444705  -0.017766  -0.005174  -0.001288  -0.004308   0.000408
     9  C   -0.119681   0.002916   0.000044   0.000702  -0.043303   0.010526
    10  C   -0.092661  -0.006126  -0.000497  -0.000354   0.004888  -0.000617
    11  H    0.003656  -0.000044   0.000006   0.000002   0.000035   0.000005
    12  N   -0.039934   0.347066  -0.045468  -0.042728   0.009427  -0.000489
    13  N    6.353596   0.348274  -0.043754  -0.043869   0.009528   0.000439
    14  B    0.348274   3.319706   0.373733   0.370551   0.011185  -0.000076
    15  F   -0.043754   0.373733   9.133060  -0.033941   0.000197  -0.000003
    16  F   -0.043869   0.370551  -0.033941   9.133016   0.000136   0.000003
    17  C    0.009528   0.011185   0.000197   0.000136   5.520237   0.437866
    18  C    0.000439  -0.000076  -0.000003   0.000003   0.437866   5.125675
    19  C   -0.000540  -0.000217   0.000002  -0.000003   0.437154  -0.012062
    20  C   -0.000014   0.000005   0.000000   0.000000  -0.079924   0.494519
    21  H   -0.000121  -0.000001  -0.000000  -0.000001  -0.043600   0.411499
    22  C    0.000015   0.000006   0.000000   0.000000  -0.079942  -0.046265
    23  H   -0.000014   0.000001  -0.000001  -0.000000  -0.043676   0.004182
    24  C    0.000005   0.000005   0.000000  -0.000000  -0.017241  -0.046095
    25  H    0.000000   0.000001   0.000000   0.000000   0.003377  -0.012073
    26  H   -0.000000   0.000001   0.000000   0.000000   0.003651  -0.000022
    27  H    0.003569   0.000481   0.000008   0.000005  -0.001782  -0.004945
    28  H   -0.032148  -0.002559   0.000245   0.000395  -0.000045   0.000007
    29  H    0.000044   0.000476   0.000005   0.000008  -0.001926  -0.000056
    30  H    0.000008  -0.002702  -0.000122   0.000911  -0.000046  -0.000001
    31  N   -0.000000   0.000000   0.000000   0.000000   0.002599  -0.000954
    32  H    0.000000   0.000000   0.000000  -0.000000  -0.000006  -0.000740
    33  H    0.000000   0.000000   0.000000   0.000000  -0.000046   0.001612
              19         20         21         22         23         24
     1  C    0.011071  -0.002796   0.001859   0.004170   0.000361   0.000997
     2  C    0.028425   0.002519   0.000309  -0.004364   0.001969   0.003003
     3  C   -0.109980   0.011900   0.002681   0.012497   0.001977  -0.008158
     4  C    0.010513  -0.000156   0.000153  -0.000357  -0.004864   0.000059
     5  C   -0.000519  -0.000015  -0.000010  -0.000054   0.000101  -0.000032
     6  C    0.000416  -0.000001  -0.000002  -0.000001   0.000074   0.000005
     7  H    0.000004  -0.000000   0.000000  -0.000000  -0.000000   0.000000
     8  C    0.000273  -0.000011   0.000099  -0.000006  -0.000001   0.000009
     9  C    0.000729  -0.000196  -0.004779  -0.000052   0.000137  -0.000259
    10  C   -0.000260  -0.000029   0.000050  -0.000003  -0.000011  -0.000050
    11  H    0.000002   0.000000  -0.000001  -0.000000   0.000000   0.000000
    12  N    0.000372   0.000017  -0.000017  -0.000018  -0.000094   0.000004
    13  N   -0.000540  -0.000014  -0.000121   0.000015  -0.000014   0.000005
    14  B   -0.000217   0.000005  -0.000001   0.000006   0.000001   0.000005
    15  F    0.000002   0.000000  -0.000000   0.000000  -0.000001   0.000000
    16  F   -0.000003   0.000000  -0.000001   0.000000  -0.000000  -0.000000
    17  C    0.437154  -0.079924  -0.043600  -0.079942  -0.043676  -0.017241
    18  C   -0.012062   0.494519   0.411499  -0.046265   0.004182  -0.046095
    19  C    5.132650  -0.048377   0.003816   0.490926   0.412535  -0.041297
    20  C   -0.048377   5.087946  -0.020393  -0.013325  -0.001435   0.488311
    21  H    0.003816  -0.020393   0.420733  -0.001208  -0.000143   0.003402
    22  C    0.490926  -0.013325  -0.001208   5.092569  -0.021038   0.483414
    23  H    0.412535  -0.001435  -0.000143  -0.021038   0.421292   0.003663
    24  C   -0.041297   0.488311   0.003402   0.483414   0.003663   4.651665
    25  H   -0.000086   0.395918  -0.003457   0.003050   0.000030  -0.028616
    26  H   -0.012716   0.002970   0.000032   0.396931  -0.003551  -0.029425
    27  H    0.000024   0.000637  -0.003498  -0.000031   0.000031   0.000308
    28  H   -0.000001   0.000000   0.000001   0.000000  -0.000000  -0.000000
    29  H   -0.005203   0.000046   0.000030   0.000679  -0.003306   0.000168
    30  H    0.000008   0.000000  -0.000000   0.000000   0.000001  -0.000000
    31  N   -0.000550  -0.058148  -0.000134  -0.058344  -0.000120   0.322994
    32  H    0.001661   0.005364   0.000011  -0.007248  -0.000026  -0.033735
    33  H   -0.000601  -0.006941  -0.000026   0.005006   0.000012  -0.033933
              25         26         27         28         29         30
     1  C    0.000022   0.000187  -0.001248   0.000265  -0.027581   0.009748
     2  C    0.000087  -0.000019  -0.027336   0.009675  -0.001235   0.000258
     3  C   -0.000069  -0.000114  -0.002130  -0.000942  -0.002414  -0.000940
     4  C    0.000003  -0.000074  -0.000029   0.000001   0.403770   0.004616
     5  C    0.000000  -0.000007   0.000004   0.000001  -0.012164  -0.022560
     6  C    0.000000   0.000001  -0.000004  -0.000007   0.003325   0.409023
     7  H   -0.000000   0.000000  -0.000000  -0.000000  -0.001088  -0.000499
     8  C    0.000001   0.000000   0.003224   0.409246  -0.000004  -0.000009
     9  C   -0.000025   0.000006   0.402866   0.004691  -0.000024   0.000001
    10  C   -0.000004   0.000000  -0.011813  -0.022683   0.000004   0.000001
    11  H   -0.000000  -0.000000  -0.001074  -0.000510  -0.000000  -0.000000
    12  N   -0.000000   0.000001   0.000044  -0.000010   0.003598  -0.031970
    13  N    0.000000  -0.000000   0.003569  -0.032148   0.000044   0.000008
    14  B    0.000001   0.000001   0.000481  -0.002559   0.000476  -0.002702
    15  F    0.000000   0.000000   0.000008   0.000245   0.000005  -0.000122
    16  F    0.000000   0.000000   0.000005   0.000395   0.000008   0.000911
    17  C    0.003377   0.003651  -0.001782  -0.000045  -0.001926  -0.000046
    18  C   -0.012073  -0.000022  -0.004945   0.000007  -0.000056  -0.000001
    19  C   -0.000086  -0.012716   0.000024  -0.000001  -0.005203   0.000008
    20  C    0.395918   0.002970   0.000637   0.000000   0.000046   0.000000
    21  H   -0.003457   0.000032  -0.003498   0.000001   0.000030  -0.000000
    22  C    0.003050   0.396931  -0.000031   0.000000   0.000679   0.000000
    23  H    0.000030  -0.003551   0.000031  -0.000000  -0.003306   0.000001
    24  C   -0.028616  -0.029425   0.000308  -0.000000   0.000168  -0.000000
    25  H    0.442439  -0.000250   0.000062   0.000000  -0.000000  -0.000000
    26  H   -0.000250   0.442589  -0.000002  -0.000000   0.000088   0.000000
    27  H    0.000062  -0.000002   0.415916  -0.000079  -0.000006  -0.000000
    28  H    0.000000  -0.000000  -0.000079   0.422614  -0.000000  -0.000001
    29  H   -0.000000   0.000088  -0.000006  -0.000000   0.416439  -0.000081
    30  H   -0.000000   0.000000  -0.000000  -0.000001  -0.000081   0.422639
    31  N    0.001753   0.001852  -0.000014  -0.000000  -0.000020  -0.000000
    32  H   -0.000168   0.002143   0.000000   0.000000  -0.000000  -0.000000
    33  H    0.002166  -0.000180   0.000001   0.000000  -0.000000   0.000000
              31         32         33
     1  C   -0.000044  -0.000001   0.000000
     2  C   -0.000003   0.000003   0.000002
     3  C   -0.000039   0.000004   0.000001
     4  C    0.000023   0.000001   0.000000
     5  C    0.000000  -0.000000  -0.000000
     6  C   -0.000000   0.000000   0.000000
     7  H    0.000000   0.000000  -0.000000
     8  C   -0.000000   0.000000   0.000000
     9  C    0.000012  -0.000000  -0.000001
    10  C    0.000000  -0.000000  -0.000000
    11  H    0.000000   0.000000  -0.000000
    12  N   -0.000000  -0.000000   0.000000
    13  N   -0.000000   0.000000   0.000000
    14  B    0.000000   0.000000   0.000000
    15  F    0.000000   0.000000   0.000000
    16  F    0.000000  -0.000000   0.000000
    17  C    0.002599  -0.000006  -0.000046
    18  C   -0.000954  -0.000740   0.001612
    19  C   -0.000550   0.001661  -0.000601
    20  C   -0.058148   0.005364  -0.006941
    21  H   -0.000134   0.000011  -0.000026
    22  C   -0.058344  -0.007248   0.005006
    23  H   -0.000120  -0.000026   0.000012
    24  C    0.322994  -0.033735  -0.033933
    25  H    0.001753  -0.000168   0.002166
    26  H    0.001852   0.002143  -0.000180
    27  H   -0.000014   0.000000   0.000001
    28  H   -0.000000   0.000000   0.000000
    29  H   -0.000020  -0.000000  -0.000000
    30  H   -0.000000  -0.000000   0.000000
    31  N    6.585151   0.380547   0.381069
    32  H    0.380547   0.369727  -0.021682
    33  H    0.381069  -0.021682   0.369579
 Mulliken charges:
               1
     1  C    0.091853
     2  C    0.098800
     3  C    0.136209
     4  C   -0.224457
     5  C   -0.268870
     6  C   -0.092278
     7  H    0.191907
     8  C   -0.092492
     9  C   -0.229624
    10  C   -0.266642
    11  H    0.191966
    12  N   -0.104526
    13  N   -0.107097
    14  B    0.400109
    15  F   -0.367119
    16  F   -0.368575
    17  C    0.055200
    18  C   -0.295282
    19  C   -0.298168
    20  C   -0.258391
    21  H    0.232715
    22  C   -0.257006
    23  H    0.231913
    24  C    0.280828
    25  H    0.195840
    26  H    0.195908
    27  H    0.226812
    28  H    0.211844
    29  H    0.226429
    30  H    0.211718
    31  N   -0.557631
    32  H    0.304148
    33  H    0.303959
 Sum of Mulliken charges =  -0.00000
 Mulliken charges with hydrogens summed into heavy atoms:
               1
     1  C    0.091853
     2  C    0.098800
     3  C    0.136209
     4  C    0.001972
     5  C   -0.076963
     6  C    0.119440
     8  C    0.119353
     9  C   -0.002811
    10  C   -0.074676
    12  N   -0.104526
    13  N   -0.107097
    14  B    0.400109
    15  F   -0.367119
    16  F   -0.368575
    17  C    0.055200
    18  C   -0.062566
    19  C   -0.066255
    20  C   -0.062551
    22  C   -0.061099
    24  C    0.280828
    31  N    0.050476
 Electronic spatial extent (au):  <R**2>=           6180.6286
 Charge=             -0.0000 electrons
 Dipole moment (field-independent basis, Debye):
    X=            -12.6726    Y=             -0.2502    Z=             -0.4406  Tot=             12.6827
 Quadrupole moment (field-independent basis, Debye-Ang):
   XX=            -91.7525   YY=            -99.6306   ZZ=           -126.7885
   XY=              1.7522   XZ=              1.3633   YZ=             -4.4905
 Traceless Quadrupole moment (field-independent basis, Debye-Ang):
   XX=             14.3047   YY=              6.4266   ZZ=            -20.7313
   XY=              1.7522   XZ=              1.3633   YZ=             -4.4905
 Octapole moment (field-independent basis, Debye-Ang**2):
  XXX=           -358.8230  YYY=             -0.2280  ZZZ=             -0.2137  XYY=             32.4403
  XXY=            -10.5827  XXZ=            -12.4096  XZZ=            -17.8581  YZZ=             -0.2524
  YYZ=             -0.7196  XYZ=             27.6528
 Hexadecapole moment (field-independent basis, Debye-Ang**3):
 XXXX=          -3771.0448 YYYY=          -1931.7374 ZZZZ=           -358.7139 XXXY=             69.8744
 XXXZ=             71.6743 YYYX=              3.1994 YYYZ=             28.1152 ZZZX=              2.2524
 ZZZY=            -24.3153 XXYY=          -1105.7913 XXZZ=          -1019.0146 YYZZ=           -462.6737
 XXYZ=           -111.4633 YYXZ=             -0.8183 ZZXY=              0.0035
 N-N= 1.590167935590D+03 E-N=-5.442367257934D+03  KE= 9.629217771494D+02
   1 Symmetry operations used in ECPInt.
 ECPInt:  NShTT=   39060 NPrTT=  121776 LenC2=   34365 LenP2D=   76755.
 LDataN:  DoStor=T MaxTD1= 7 Len=  274
 D1PCM: PCM CHGder 1st derivatives, ID1Alg=3 FixD1E=F DoIter=F DoCFld=F I1PDM=0.
 Calling FoFJK, ICntrl=      2127 FMM=F ISym2X=0 I1Cent= 0 IOpClX= 0 NMat=1 NMatS=1 NMatT=0.
 ***** Axes restored to original set *****
 -------------------------------------------------------------------
 Center     Atomic                   Forces (Hartrees/Bohr)
 Number     Number              X              Y              Z
 -------------------------------------------------------------------
      1        6          -0.003899820    0.000052666   -0.000545718
      2        6          -0.003907130   -0.000035770    0.000546539
      3        6           0.003073327   -0.000006967   -0.000051710
      4        6           0.000569233    0.000521975   -0.000002697
      5        6          -0.000154447    0.000364603   -0.000117471
      6        6           0.000687042   -0.002715937   -0.000223545
      7        1          -0.000080627    0.006428265    0.000753922
      8        6           0.000689951    0.002721322    0.000366236
      9        6           0.000567551   -0.000521719    0.000015215
     10        6          -0.000151202   -0.000353159    0.000040449
     11        1          -0.000100883   -0.006441288   -0.000627352
     12        7           0.000919784   -0.000956152   -0.000227551
     13        7           0.000923969    0.000965699    0.000222144
     14        5          -0.005655878    0.000002230   -0.000380642
     15        9           0.001375746   -0.000177013    0.000393924
     16        9           0.001322414    0.000163713   -0.000257435
     17        6          -0.003343553   -0.000005058    0.000011462
     18        6          -0.000177862   -0.000587741    0.000229038
     19        6          -0.000175506    0.000584262   -0.000232105
     20        6          -0.000569144   -0.000584241    0.000421775
     21        1          -0.002766000   -0.003734873    0.003631929
     22        6          -0.000582146    0.000655697   -0.000347708
     23        1          -0.002796576    0.003746116   -0.003600134
     24        6           0.010315370   -0.000280751   -0.000343951
     25        1           0.002708268   -0.003537030    0.003414427
     26        1           0.002681818    0.003536828   -0.003432643
     27        1           0.006275396   -0.001967243   -0.000571053
     28        1          -0.006350785   -0.001663456   -0.000050590
     29        1           0.006281062    0.001934380    0.000601298
     30        1          -0.006349845    0.001682779    0.000138334
     31        7          -0.005871028   -0.000033648   -0.000021534
     32        1           0.002260286    0.003286264   -0.002739562
     33        1           0.002281215   -0.003044756    0.002986711
 -------------------------------------------------------------------
 Cartesian Forces:  Max     0.010315370 RMS     0.002638281

 GradGradGradGradGradGradGradGradGradGradGradGradGradGradGradGradGradGrad
 Berny optimization.
 FormGI is forming the generalized inverse of G from B-inverse, IUseBI=4.
 Internal  Forces:  Max     0.007306385 RMS     0.002381446
 Search for a local minimum.
 Step number   1 out of a maximum of  198
 All quantities printed in internal units (Hartrees-Bohrs-Radians)
 Mixed Optimization -- RFO/linear search
 Second derivative matrix not updated -- first step.
 ITU=  0
     Eigenvalues ---    0.00514   0.01166   0.01281   0.01328   0.01614
     Eigenvalues ---    0.01720   0.01740   0.01886   0.01908   0.01956
     Eigenvalues ---    0.01960   0.01992   0.02018   0.02021   0.02050
     Eigenvalues ---    0.02072   0.02112   0.02112   0.02123   0.02124
     Eigenvalues ---    0.02164   0.02166   0.02187   0.02189   0.02273
     Eigenvalues ---    0.02275   0.02325   0.02543   0.07147   0.10278
     Eigenvalues ---    0.13518   0.14911   0.15978   0.15982   0.15991
     Eigenvalues ---    0.15993   0.15996   0.15996   0.15998   0.15998
     Eigenvalues ---    0.15999   0.15999   0.16000   0.16000   0.22002
     Eigenvalues ---    0.22271   0.22289   0.22941   0.23999   0.24056
     Eigenvalues ---    0.24103   0.24666   0.24796   0.24959   0.24997
     Eigenvalues ---    0.25000   0.25000   0.27315   0.27365   0.34609
     Eigenvalues ---    0.34609   0.34651   0.34654   0.34840   0.34844
     Eigenvalues ---    0.35128   0.35135   0.35157   0.35157   0.36833
     Eigenvalues ---    0.38209   0.39389   0.40150   0.40381   0.41145
     Eigenvalues ---    0.41570   0.41845   0.42848   0.43521   0.43526
     Eigenvalues ---    0.44549   0.44709   0.45592   0.45599   0.46116
     Eigenvalues ---    0.46530   0.47195   0.47334   0.47338   0.48691
     Eigenvalues ---    0.54573   0.54991   0.55017
 RFO step:  Lambda=-2.66995997D-03 EMin= 5.13622528D-03
 Linear search not attempted -- first point.
 Iteration  1 RMS(Cart)=  0.01562461 RMS(Int)=  0.00002729
 Iteration  2 RMS(Cart)=  0.00004891 RMS(Int)=  0.00000603
 Iteration  3 RMS(Cart)=  0.00000000 RMS(Int)=  0.00000603
 Variable       Old X    -DE/DX   Delta X   Delta X   Delta X     New X
                                 (Linear)    (Quad)   (Total)
    R1        2.67508  -0.00637   0.00000  -0.01503  -0.01503   2.66005
    R2        2.67566  -0.00597   0.00000  -0.01387  -0.01386   2.66179
    R3        2.61971  -0.00211   0.00000  -0.00402  -0.00402   2.61569
    R4        2.67504  -0.00637   0.00000  -0.01502  -0.01501   2.66002
    R5        2.67570  -0.00597   0.00000  -0.01385  -0.01385   2.66186
    R6        2.62011  -0.00210   0.00000  -0.00399  -0.00399   2.61612
    R7        2.76098  -0.00397   0.00000  -0.01069  -0.01069   2.75030
    R8        2.63135  -0.00526   0.00000  -0.01157  -0.01157   2.61979
    R9        2.05467  -0.00660   0.00000  -0.01865  -0.01865   2.03603
   R10        2.65447  -0.00562   0.00000  -0.01264  -0.01264   2.64183
   R11        2.05420  -0.00647   0.00000  -0.01827  -0.01827   2.03593
   R12        2.53043  -0.00317   0.00000  -0.00524  -0.00524   2.52519
   R13        2.05928  -0.00657   0.00000  -0.01870  -0.01870   2.04058
   R14        2.65436  -0.00563   0.00000  -0.01265  -0.01265   2.64171
   R15        2.53048  -0.00314   0.00000  -0.00520  -0.00520   2.52528
[...]
 9,-0.00004068,0.35597724,0.00001272,0.00013896,-0.00000781,0.00114361,
 -0.00521968,-0.00123018,-0.00171203,0.00036170,-0.00017600,0.00001762,
 0.00003631,0.00001262,0.00004256,-0.00004151,-0.00000188,-0.00001458,-
 0.00002636,-0.00000095,0.00000286,-0.00000296,-0.00000084,-0.05569394,
 -0.07523893,-0.00305915,0.00400616,-0.00256691,-0.00094008,0.01469048,
 0.01219432,0.00068560,-0.00104419,0.00003057,0.00028187,-0.00000343,0.
 00001923,-0.00001623,-0.03373139,-0.00315599,0.00020539,-0.00107711,0.
 00019399,0.00014021,0.00025523,0.00006450,0.00012546,0.00017825,0.0000
 8295,-0.00008449,0.00007437,-0.00042484,0.00019352,0.00003066,0.000039
 74,0.00005375,-0.00015707,0.00000109,-0.00003832,-0.00003161,0.0000014
 9,-0.00000328,0.00000875,0.00000852,-0.00001850,0.00000328,-0.00002098
 ,0.00004317,0.00000474,-0.00000349,-0.00000386,0.00001792,0.00000400,-
 0.00001947,-0.00000522,-0.00000030,-0.00000126,-0.00001543,0.00000364,
 0.00000309,0.00067039,0.00107720,0.00001057,0.07234313,0.07245071,-0.0
 0022260,0.00043035,0.00031153,0.00040972,-0.00079162,0.00621438,0.0003
 1004,-0.00043248,0.00184037,0.00007651,-0.00026904,-0.00007854,-0.0002
 7947,0.00001424,-0.00006577,0.00001581,0.00030838,-0.00007662,-0.00000
 291,0.00000244,0.00001522,-0.00143840,-0.00229968,-0.03721725,0.000349
 71,-0.00105067,0.00417837,0.00247115,0.00070127,0.00478275,-0.00019467
 ,0.00026550,-0.00225252,0.00017340,-0.00017680,0.00025713,-0.00387057,
 -0.00052462,0.00050413,0.00011860,0.00008935,-0.00184592,-0.00039642,-
 0.00003564,-0.00018170,0.00045638,-0.00005162,-0.00020577,-0.00063681,
 -0.00005772,-0.00120509,0.00007499,-0.00027410,0.00007095,0.00045819,0
 .00006419,-0.00012837,-0.00005815,0.00000454,0.00009106,-0.00000113,0.
 00003333,-0.00003181,-0.00027474,0.00025263,-0.00013537,-0.00000736,-0
 .00002129,-0.00002631,0.00027325,-0.00012655,0.00008975,-0.00000753,0.
 00001047,0.00000184,0.00001387,-0.00000662,0.00000338,0.00014992,0.000
 06916,0.00024347,0.00230976,0.00384940,0.02480812,-0.00051235,0.001583
 95,0.00037576,-0.00002710,-0.00028738,-0.00006462,-0.00081808,0.000151
 63,0.00007650,-0.33463064,-0.08513626,-0.02560556,-0.00961327,-0.00946
 720,-0.00138896,-0.00298365,0.00164381,-0.00005257,0.00065950,0.000116
 97,0.00013911,0.00001730,-0.00012424,-0.00002057,0.00000551,0.00009828
 ,0.00002551,-0.00011498,-0.00003906,-0.00001522,-0.00000261,-0.0000037
 5,0.00000107,0.00049273,0.00058831,-0.00015539,0.00009912,0.00000588,0
 .00001186,0.00017673,0.00019599,-0.00007341,-0.00003830,-0.00005025,-0
 .00004714,-0.00000078,-0.00001069,0.00003103,0.00015038,0.00076646,0.0
 0010890,0.00029138,-0.00026493,0.00014408,-0.00081785,0.00117174,0.001
 64429,-0.00028958,-0.00002512,-0.00000475,0.00000928,0.00000700,0.0000
 0208,0.00017108,0.00000649,0.00012440,-0.00054939,0.00084698,0.0001211
 0,-0.00005662,0.00012825,-0.00029779,-0.00000241,0.00000419,0.00001251
 ,-0.00000040,0.00001681,0.00002685,0.00000530,-0.00000480,0.00000500,-
 0.00000025,-0.00000213,0.00000564,0.34860638,-0.02378102,0.00265756,-0
 .00099028,-0.00002742,0.00020130,0.00014567,0.00032256,0.00031230,0.00
 031472,-0.08329417,-0.08304980,-0.00970677,0.01667648,0.01219570,0.001
 59135,0.00424483,-0.00296292,-0.00087060,-0.00134119,0.00019844,0.0004
 1430,0.00002823,0.00020063,0.00002470,-0.00000712,-0.00017679,-0.00001
 762,0.00017303,-0.00004386,-0.00001461,0.00000640,-0.00000036,-0.00000
 297,-0.00317753,-0.00555438,-0.00080717,0.00001057,-0.00018126,0.00000
 380,0.00019975,0.00152162,-0.00020353,-0.00038804,-0.00034408,-0.00032
 739,-0.00023753,-0.00021302,0.00026568,-0.00002956,-0.00028258,-0.0001
 3030,0.00028787,-0.00005625,0.00014103,0.00086790,-0.00089137,-0.00069
 650,-0.00024385,-0.00002796,0.00001413,-0.00000776,0.00001982,-0.00002
 237,0.00016285,0.00010807,0.00001192,0.00020606,-0.00024442,-0.0006044
 4,0.00023260,0.00007516,-0.00013854,-0.00001064,-0.00000170,-0.0000059
 1,-0.00002856,0.00000864,0.00002219,0.00000475,-0.00001461,-0.00000348
 ,-0.00000177,0.00000029,-0.00000621,0.08876944,0.07545771,-0.00230981,
 0.00113771,0.00047500,0.00027928,0.00079049,-0.00009211,-0.00040473,-0
 .00058611,-0.00223648,-0.02552502,-0.00939157,-0.03623186,0.00190057,0
 .00012837,0.00415937,-0.00009973,-0.00108340,0.00534522,-0.00000776,0.
 00041668,-0.00340749,0.00000429,0.00041385,0.00003800,-0.00007578,-0.0
 0046965,0.00009505,0.00040677,-0.00000868,-0.00008874,0.00000350,0.000
 00996,-0.00001121,-0.00035788,-0.00068556,0.00339648,-0.00021798,-0.00
 022066,-0.00012090,-0.00012967,0.00024833,0.00148790,0.00048516,0.0003
 9236,0.00015956,-0.00045574,-0.00051621,0.00019598,0.00108405,-0.00081
 776,0.00025084,-0.00047131,0.00060605,-0.00016797,0.00021059,-0.001341
 41,-0.00028602,0.00048152,0.00019582,-0.00024366,-0.00001985,-0.000004
 43,-0.00000587,-0.00021255,0.00006766,-0.00014619,0.00039381,-0.000481
 71,-0.00065099,-0.00020506,-0.00037741,0.00042137,0.00001299,-0.000033
 59,-0.00004567,-0.00000588,0.00001019,-0.00000946,-0.00000482,-0.00000
 341,0.00003197,-0.00000641,-0.00000507,0.00003376,0.02500496,0.0115261
 8,0.02746606,0.00188545,-0.00055622,-0.00000140,-0.00012470,-0.0003262
 0,-0.00006234,-0.00018589,0.00069195,0.00004905,-0.00249617,-0.0020045
 0,-0.00032075,-0.00706479,0.00862482,0.00084914,-0.34479708,0.06534328
 ,0.00409569,0.00024872,-0.00025463,-0.00000694,-0.00001978,-0.00017518
 ,-0.00001525,0.00006536,0.00021300,0.00001683,-0.00018718,0.00004131,0
 .00000657,-0.00000203,-0.00000127,0.00000207,-0.00217093,0.00139274,0.
 00006161,0.00015826,0.00023957,-0.00000482,-0.00095813,-0.00003504,0.0
 0013246,0.00024317,-0.00003079,0.00013822,0.00028310,-0.00029956,-0.00
 015805,0.00011661,0.00007716,-0.00002275,-0.00002246,0.00003982,0.0000
 3310,-0.00004864,-0.00003851,0.00001070,-0.00000152,0.00001068,-0.0000
 1462,0.00000148,-0.00000254,-0.00000446,0.00006193,-0.00000824,0.00003
 317,-0.00000385,-0.00000494,-0.00002707,-0.00003782,0.00002982,-0.0000
 1852,-0.00000080,-0.00000543,-0.00000388,0.00000007,0.00000185,0.00000
 210,-0.00000026,0.00000171,0.00000669,0.00000563,0.00000428,0.00000234
 ,-0.00025751,0.00059730,0.00004479,0.35527427,-0.00118618,-0.00521112,
 -0.00122244,-0.00001142,0.00014050,-0.00000716,0.00171368,0.00035019,-
 0.00019192,-0.00401171,-0.00253825,-0.00091102,-0.01459988,0.01221917,
 0.00079568,0.05686113,-0.07575183,-0.00351250,0.00104561,0.00002701,0.
 00027506,0.00001459,-0.00002565,-0.00000089,-0.00001760,0.00003551,0.0
 0001263,-0.00004199,-0.00004154,-0.00000149,-0.00000287,-0.00000294,-0
 .00000084,0.03372706,-0.00331332,-0.00005354,0.00000266,0.00001809,-0.
 00001630,0.00108128,0.00018546,0.00013181,-0.00018175,0.00008367,-0.00
 008257,-0.00025418,0.00006437,0.00012707,-0.00007603,-0.00042457,0.000
 19514,0.00015721,-0.00000043,-0.00004004,-0.00002978,0.00003969,0.0000
 5441,-0.00000314,-0.00002092,0.00004355,-0.00000478,-0.00000340,-0.000
 00367,0.00003129,0.00000210,-0.00000331,-0.00000899,0.00000887,-0.0000
 1838,-0.00001823,0.00000564,-0.00001788,0.00001546,0.00000342,0.000002
 88,0.00000522,-0.00000052,-0.00000141,0.00000208,0.00000029,-0.0000051
 7,-0.00000434,-0.00000949,0.00000084,-0.00066536,0.00107719,0.00001651
 ,-0.07355827,0.07308281,-0.00037441,-0.00079533,0.00620795,0.00022624,
 0.00042849,0.00030902,-0.00029259,-0.00043105,0.00184536,-0.00030672,-
 0.00103675,0.00418185,-0.00238267,0.00065404,0.00478787,0.00377581,-0.
 00281922,-0.03723302,0.00017725,0.00026782,-0.00225596,-0.00001487,0.0
 0030784,-0.00007670,-0.00007855,-0.00026850,-0.00007790,0.00027854,0.0
 0001270,-0.00006814,0.00000303,0.00000240,0.00001522,0.00389696,-0.000
 55319,0.00046543,-0.00017185,-0.00017648,0.00025896,-0.00012260,0.0000
 9105,-0.00184476,-0.00046053,-0.00004959,-0.00020390,0.00039119,-0.000
 03521,-0.00018204,0.00062213,-0.00006304,-0.00120949,-0.00045606,0.000
 06644,-0.00012333,-0.00007518,-0.00027151,0.00007271,0.00027271,0.0002
 5334,-0.00013253,0.00000669,-0.00002211,-0.00002686,0.00005921,0.00000
 570,0.00009142,0.00000079,0.00003389,-0.00003185,-0.00027235,-0.000089
 52,0.00012747,-0.00001362,-0.00000615,0.00000404,0.00000768,0.00001048
 ,0.00000162,-0.00000540,-0.00000620,0.00003401,-0.00000234,0.00000080,
 0.00000170,-0.00014547,0.00006602,0.00024746,-0.00481980,0.00443522,0.
 02485541,-0.00368301,0.00646273,-0.00186689,-0.00370797,-0.00648460,0.
 00189068,0.02112730,-0.00001287,-0.00007019,0.00084360,-0.00462235,-0.
 00021380,-0.00420661,0.00013050,-0.00046538,-0.00025294,0.00387819,0.0
 0040714,-0.00007078,0.00014063,0.00003492,-0.00027403,-0.00389616,-0.0
 0040291,0.00086855,0.00464333,0.00020985,-0.00422249,-0.00011161,0.000
 49736,-0.00007260,-0.00014106,-0.00003370,0.00183629,-0.00107803,-0.00
 105403,0.00186862,0.00107566,0.00103745,0.00254335,-0.00000539,-0.0000
 0455,-0.00082135,0.00002382,-0.00056600,-0.00081757,-0.00002059,0.0005
 6809,-0.02687843,-0.00005734,0.00003576,0.01721216,-0.00613164,0.00094
 268,0.01730435,0.00592937,-0.00127102,-0.05344644,-0.01692762,0.018388
 46,-0.00049228,-0.00022874,0.00018568,-0.05367716,0.01898591,-0.016194
 99,-0.00048867,0.00034018,-0.00006946,-0.31921610,0.00923547,0.0099659
 8,0.00211816,0.00174355,-0.00067499,0.00208247,-0.00155534,0.00083664,
 0.00003607,0.00022253,-0.00020469,0.00003700,-0.00001942,-0.00029232,0
 .00003835,-0.00022231,0.00020660,0.00003861,0.00001910,0.00029210,0.69
 558903,0.00069086,-0.00134450,0.00037693,0.00058693,0.00089796,-0.0003
 5736,-0.00368315,0.00011557,-0.00068145,-0.00010357,0.00092890,0.00006
 163,0.00076284,0.00000444,0.00001342,0.00009152,-0.00072671,-0.0000875
 7,0.00001068,-0.00002730,-0.00000631,-0.00000695,0.00066134,0.00006558
 ,-0.00021471,-0.00067048,-0.00002322,0.00071594,0.00005318,-0.00016409
 ,0.00001408,0.00002095,0.00000573,-0.00034607,0.00023710,0.00023695,-0
 .00032795,-0.00017115,-0.00015147,-0.00043710,-0.00009772,-0.00000649,
 0.00014192,0.00001572,0.00009925,0.00013961,0.00002339,-0.00009482,0.0
 0481684,0.00377550,-0.00439175,0.00133885,-0.00198489,0.00852109,-0.00
 784571,-0.00392002,0.00694939,-0.03171535,0.01002499,0.00151184,-0.001
 26906,-0.00002810,-0.00023131,0.03883775,0.00129986,0.00591305,0.00097
 108,-0.00009153,-0.00012453,-0.02091360,-0.08667336,0.04262522,-0.0003
 4782,-0.00110519,-0.00232734,0.00075053,-0.00020031,-0.00153636,0.0000
 1526,-0.00003239,0.00012027,-0.00000312,0.00000468,0.00006267,-0.00003
 261,0.00003353,0.00003254,-0.00001065,-0.00000196,-0.00004563,0.091563
 14,0.46912779,0.00079943,-0.00137735,0.00027304,0.00060710,0.00119836,
 -0.00043332,-0.00409707,-0.00053051,0.00034286,-0.00016426,0.00094871,
 0.00000242,0.00086101,-0.00002244,0.00015844,0.00005304,-0.00081500,-0
 .00007798,0.00001200,-0.00002671,-0.00001155,0.00004401,0.00070997,0.0
 0008305,-0.00015893,-0.00084895,-0.00008586,0.00076468,0.00001827,-0.0
 0002436,0.00001383,0.00002630,0.00000130,-0.00040472,0.00024895,0.0002
 3619,-0.00035993,-0.00021152,-0.00017480,-0.00047342,-0.00003236,-0.00
 002680,0.00015540,0.00000126,0.00011625,0.00014881,0.00000958,-0.00009
 417,0.00520531,-0.00447303,0.00301336,-0.00813382,0.00775977,-0.002566
 00,0.00127567,0.00735428,-0.00242425,0.03800109,0.00651459,0.00165129,
 0.00097178,-0.00003620,-0.00002521,-0.03047502,0.00138307,0.01031416,-
 0.00128274,-0.00018873,0.00000654,-0.02155040,0.04261006,-0.08385862,0
 .00071631,-0.00175320,-0.00040083,-0.00034521,-0.00221755,-0.00091970,
 -0.00002572,-0.00003661,-0.00001533,-0.00000879,0.00000339,0.00003678,
 0.00000062,0.00002916,-0.00009922,-0.00000836,-0.00000141,-0.00007603,
 0.09560135,-0.37209090,0.43950027,0.00009371,-0.00022090,0.00005628,0.
 00010591,0.00017254,-0.00005777,-0.00058676,0.00004803,-0.00008379,-0.
 00001829,0.00013317,0.00000103,0.00011874,0.00000278,0.00000599,0.0000
 1304,-0.00011948,-0.00001402,0.00000107,-0.00000368,-0.00000060,0.0000
 0096,0.00011443,0.00001285,-0.00003187,-0.00011320,-0.00000992,0.00011
 660,0.00000483,-0.00001883,0.00000123,0.00000298,0.00000067,-0.0000612
 2,0.00005224,0.00003292,-0.00006142,-0.00003922,-0.00001956,-0.0000703
 5,-0.00001198,0.00000011,0.00002302,0.00000175,0.00001505,0.00002298,0
 .00000304,-0.00001533,0.00091115,0.00015680,-0.00024013,-0.00049983,-0
 .00081214,0.00134426,-0.00061099,0.00001914,0.00047263,-0.00397172,0.0
 0195650,-0.00243823,-0.00040103,0.00005156,-0.00005421,0.00253772,-0.0
 0075899,0.00186579,0.00008065,-0.00003703,-0.00003548,-0.01839967,-0.0
 2961477,0.01590354,0.00011053,-0.00009246,-0.00000076,-0.00012409,0.00
 059634,-0.00094668,-0.00000096,-0.00000087,0.00001438,-0.00000125,0.00
 000052,0.00000742,-0.00000377,0.00000633,0.00000422,-0.00000172,0.0000
 0066,-0.00000679,-0.14541731,-0.14276818,0.06259045,0.15461998,0.00006
 447,-0.00008393,0.00004307,-0.00000252,0.00001713,-0.00003441,-0.00023
 357,-0.00006698,-0.00009921,-0.00001610,0.00006426,0.00000728,0.000065
 71,-0.00000511,0.00000312,0.00000222,-0.00006205,-0.00000923,0.0000021
 8,-0.00000171,0.00000023,-0.00000847,0.00003757,0.00000380,-0.00002654
 ,-0.00001302,-0.00001112,0.00003866,0.00000319,-0.00001237,0.00000008,
 0.00000029,0.00000077,-0.00003577,0.00001324,0.00001561,-0.00000648,-0
 .00002687,0.00000375,-0.00002817,0.00000206,0.00000440,0.00000909,-0.0
 0000127,0.00000459,0.00000957,-0.00000039,-0.00000755,0.00028219,0.000
 43566,-0.00038577,0.00061162,0.00097300,0.00062204,-0.00067120,-0.0003
 5199,0.00038426,0.00147227,0.00137380,0.00094015,0.00014013,-0.0001107
 5,-0.00014254,0.00194631,0.00072262,-0.00125765,0.00004568,-0.00000129
 ,0.00001432,0.00604084,0.00350308,-0.00685069,0.00007253,-0.00024349,-
 0.00036075,-0.00065456,-0.00035941,-0.00015079,0.00000224,-0.00000741,
 0.00001204,0.00000059,0.,0.00000203,0.00000364,0.00000312,-0.00000108,
 -0.00000095,-0.00000075,-0.00000362,-0.15886545,-0.28751390,0.16562498
 ,0.15583875,0.29017870,-0.00045065,0.00082228,-0.00020500,-0.00047977,
 -0.00091363,0.00020068,0.00266716,0.00006160,0.00001079,0.00009557,-0.
 00056626,-0.00002388,-0.00050756,0.00000990,-0.00005903,-0.00003544,0.
 00047598,0.00004814,-0.00000754,0.00001664,0.00000611,-0.00004827,-0.0
 0050431,-0.00005131,0.00008443,0.00061792,0.00001926,-0.00053325,-0.00
 000475,0.00004761,-0.00000876,-0.00001830,-0.00000293,0.00023278,-0.00
 014379,-0.00013223,0.00026598,0.00015172,0.00012305,0.00031127,-0.0000
 0428,0.00001203,-0.00010127,0.00000361,-0.00007408,-0.00009882,-0.0000
 0194,0.00006470,-0.00316516,0.00018643,-0.00014572,0.00218323,0.000188
 64,0.00094158,0.00170595,0.00009530,-0.00067659,-0.00278309,-0.0002443
 4,0.00416699,0.00004825,-0.00020740,-0.00013654,-0.00398302,-0.0000442
 0,-0.00159032,-0.00001978,0.00009047,0.00002746,0.01280189,-0.00264714
 ,-0.00325230,-0.00005361,-0.00037186,-0.00006240,0.00032139,0.00039965
 ,-0.00002208,0.00000794,0.00002052,-0.00001116,0.00000668,-0.00000112,
 -0.00003189,0.00000712,-0.00002455,0.00002928,0.00000533,0.00000100,0.
 00003654,0.04924518,0.14304098,-0.09000456,-0.07286944,-0.15604701,0.0
 9867961,0.00011198,-0.00018405,0.00005418,0.00006761,0.00015023,-0.000
 07101,-0.00052336,-0.00007603,0.00006948,-0.00002814,0.00012429,0.0000
 1008,0.00011831,-0.00000387,0.00001736,0.00000565,-0.00011725,-0.00001
 392,0.00000119,-0.00000314,-0.00000116,0.00000493,0.00009938,0.0000119
 0,-0.00002683,-0.00009964,-0.00000745,0.00010158,0.00000239,-0.0000081
 8,0.00000147,0.00000305,0.00000016,-0.00005835,0.00004135,0.00002710,-
 0.00004687,-0.00003981,-0.00002589,-0.00006747,-0.00000228,-0.00000286
 ,0.00002256,-0.00000036,0.00001573,0.00002169,0.00000094,-0.00001319,0
 .00089062,-0.00021415,0.00014368,-0.00065688,0.00058216,0.00018532,-0.
 00046845,0.00117778,-0.00097141,0.00257557,0.00191191,-0.00076801,0.00
 009049,-0.00002700,-0.00003003,-0.00398063,-0.00246612,0.00194500,-0.0
 0040558,-0.00004240,0.00006465,-0.01847049,0.01703077,-0.02899430,-0.0
 0014103,-0.00099526,0.00060855,0.00012708,0.00003341,-0.00006509,-0.00
 000198,-0.00000731,0.00000033,-0.00000089,0.00000002,0.00000635,-0.000
 00351,0.00000152,-0.00001313,-0.00000143,-0.00000055,-0.00000851,-0.14
 579818,0.06857777,-0.14033351,0.01150497,-0.00609899,0.01515529,0.1550
 3435,-0.00040610,0.00068046,-0.00027605,-0.00043458,-0.00077221,0.0002
 5670,0.00247256,0.00005441,0.00005819,0.00012345,-0.00050050,-0.000042
 20,-0.00048684,0.00002056,-0.00006077,-0.00001656,0.00045551,0.0000522
 8,-0.00000696,0.00001492,0.00000422,-0.00002800,-0.00049040,-0.0000531
 2,0.00012149,0.00054877,0.00003493,-0.00052051,-0.00001874,0.00006439,
 -0.00001019,-0.00001668,-0.00000402,0.00020050,-0.00014350,-0.00013003
 ,0.00024528,0.00014517,0.00012254,0.00029855,0.00000498,0.00000307,-0.
 00009701,0.00000150,-0.00006708,-0.00009627,-0.00000424,0.00006498,-0.
 00322722,-0.00017613,0.00019946,0.00179142,-0.00125779,-0.00053617,0.0
 0239492,0.00153754,0.00078288,-0.00411021,-0.00167358,-0.00009244,-0.0
 0003399,0.00000768,0.00007160,-0.00304040,0.00425693,-0.00023207,0.000
 00701,-0.00011661,-0.00019518,0.01256983,-0.00280767,-0.00294706,0.000
 27999,0.00013129,0.00048517,-0.00006355,-0.00020741,-0.00043829,-0.000
 00107,0.00002685,-0.00003445,0.00000469,-0.00000245,-0.00003614,0.0000
 0793,-0.00002572,0.00003504,0.00000363,0.00000271,0.00003687,0.0559864
 3,-0.10263539,0.15022179,0.01543051,-0.00847738,0.01556225,-0.07935875
 ,0.11143709,0.00005349,-0.00008101,-0.00001112,0.00000195,0.00004184,0
 .00001106,-0.00011245,-0.00008862,-0.00007427,0.00001349,0.00004667,-0
 .00001689,0.00002468,0.00000408,-0.00000317,0.00001705,-0.00002622,-0.
 00000088,0.00000105,-0.00000175,0.00000087,0.00000607,0.00000961,-0.00
 000106,0.00000361,-0.00001995,-0.00000581,0.00000910,-0.00000333,0.000
 00360,-0.00000030,0.00000027,0.00000151,-0.00001942,0.00000081,0.00000
 975,-0.00000269,-0.00000670,0.00000620,-0.00001732,-0.00000298,0.00001
 008,0.00000464,0.00000025,0.00000039,0.00000633,0.00000058,-0.00000807
 ,-0.00002882,-0.00030551,0.00027328,-0.00042710,0.00031550,-0.00023275
 ,0.00082664,0.00057837,0.00099176,0.00162341,-0.00135881,0.00074947,0.
 00003335,0.00002111,0.00000716,0.00129690,0.00115027,0.00133558,0.0001
 1445,-0.00014250,-0.00012011,0.00659639,-0.00706794,0.00306481,-0.0006
 1646,-0.00013086,-0.00038272,0.00005809,-0.00039320,-0.00022151,-0.000
 00341,-0.00000230,-0.00000200,-0.00000038,-0.00000033,-0.00000176,0.00
 000306,0.00000238,0.00001055,-0.00000086,0.00000014,-0.00000152,-0.156
 96099,0.17268408,-0.27441735,-0.00551606,-0.00231263,-0.00793181,0.153
 01249,-0.16291131,0.27695673\\-0.00000580,-0.00000304,0.00001444,-0.00
 000970,-0.00000177,0.00000152,0.00001334,0.00000132,0.00001064,0.00000
 068,0.00000292,-0.00001154,0.00000571,-0.00000126,0.00000232,-0.000000
 83,-0.00000478,0.00000284,0.00000093,0.00000051,0.00000282,-0.00000038
 ,-0.00000491,0.00003578,0.00000233,0.00000181,0.00001489,-0.00000254,0
 .00000535,-0.00002201,-0.00000148,0.00000072,-0.00000469,0.00000593,0.
 00000260,0.00000274,0.00000758,0.00000615,-0.00003495,-0.00000686,-0.0
 0000069,-0.00000461,-0.00000031,0.00000341,0.00000192,0.00000292,-0.00
 000048,0.00000049,-0.00001705,0.00000106,-0.00000450,0.00001104,-0.000
 00094,-0.00000543,0.00000917,-0.00000366,0.00000396,-0.00001375,-0.000
 00463,0.00000300,-0.00000069,-0.00000309,-0.00000086,-0.00001175,0.000
 00452,-0.00000312,-0.00000080,0.00000316,-0.00000006,0.00006977,-0.000
 00121,-0.00000293,-0.00000065,-0.00000173,-0.00000127,-0.00000068,0.00
 000048,-0.00000025,0.00000049,0.00000012,-0.00000338,-0.00000123,0.000
 00148,-0.00000400,0.00000242,-0.00000053,0.00000256,0.00000028,0.00000
 092,0.00000773,-0.00004950,-0.00000204,-0.00000161,-0.00000376,-0.0000
 0519,0.00000327,-0.00000484,0.00000342,-0.00000570\\\@
 The archive entry for this job was punched.


 There ain't no surer way to find out whether you
 like people or hate them than to travel with them.
                                     -- Mark Twain
 Job cpu time:       1 days 10 hours 30 minutes 43.1 seconds.
 Elapsed time:       0 days  1 hours  5 minutes 16.3 seconds.
 File lengths (MBytes):  RWF=   1586 Int=      0 D2E=      0 Chk=     52 Scr=      1
 Normal termination of Gaussian 16 at Fri Oct 10 02:53:54 2025.
