 Entering Gaussian System, Link 0=g16
 Initial command:
 /home/users/sutd/1008721/g16/l1.exe "/home/users/sutd/1008721/scratch/g16/scratch/Gau-4057637.inp" -scrdir="/home/users/sutd/1008721/scratch/g16/scratch/"
 Entering Link 1 = /home/users/sutd/1008721/g16/l1.exe PID=   4057638.
  
 Copyright (c) 1988-2019, Gaussian, Inc.  All Rights Reserved.
  
 This is part of the Gaussian(R) 16 program.  It is based on
 the Gaussian(R) 09 system (copyright 2009, Gaussian, Inc.),
 the Gaussian(R) 03 system (copyright 2003, Gaussian, Inc.),
 the Gaussian(R) 98 system (copyright 1998, Gaussian, Inc.),
 the Gaussian(R) 94 system (copyright 1995, Gaussian, Inc.),
 the Gaussian 92(TM) system (copyright 1992, Gaussian, Inc.),
 the Gaussian 90(TM) system (copyright 1990, Gaussian, Inc.),
 the Gaussian 88(TM) system (copyright 1988, Gaussian, Inc.),
 the Gaussian 86(TM) system (copyright 1986, Carnegie Mellon
 University), and the Gaussian 82(TM) system (copyright 1983,
 Carnegie Mellon University). Gaussian is a federally registered
 trademark of Gaussian, Inc.
  
 This software contains proprietary and confidential information,
 including trade secrets, belonging to Gaussian, Inc.
  
 This software is provided under written license and may be
 used, copied, transmitted, or stored only in accord with that
 written license.
  
 The following legend is applicable only to US Government
 contracts under FAR:
  
                    RESTRICTED RIGHTS LEGEND
  
 Use, reproduction and disclosure by the US Government is
 subject to restrictions as set forth in subparagraphs (a)
 and (c) of the Commercial Computer Software - Restricted
 Rights clause in FAR 52.227-19.
  
 Gaussian, Inc.
 340 Quinnipiac St., Bldg. 40, Wallingford CT 06492
  
  
 ---------------------------------------------------------------
 Warning -- This program may not be used in any manner that
 competes with the business of Gaussian, Inc. or will provide
 assistance to any competitor of Gaussian, Inc.  The licensee
 of this program is prohibited from giving any competitor of
 Gaussian, Inc. access to this program.  By using this program,
 the user acknowledges that Gaussian, Inc. is engaged in the
 business of creating and licensing software in the field of
 computational chemistry and represents and warrants to the
 licensee that it is not a competitor of Gaussian, Inc. and that
 it will not use this program in any manner prohibited above.
 ---------------------------------------------------------------
  

 Cite this work as:
 Gaussian 16, Revision C.01,
 M. J. Frisch, G. W. Trucks, H. B. Schlegel, G. E. Scuseria, 
 M. A. Robb, J. R. Cheeseman, G. Scalmani, V. Barone, 
 G. A. Petersson, H. Nakatsuji, X. Li, M. Caricato, A. V. Marenich, 
 J. Bloino, B. G. Janesko, R. Gomperts, B. Mennucci, H. P. Hratchian, 
 J. V. Ortiz, A. F. Izmaylov, J. L. Sonnenberg, D. Williams-Young, 
 F. Ding, F. Lipparini, F. Egidi, J. Goings, B. Peng, A. Petrone, 
 T. Henderson, D. Ranasinghe, V. G. Zakrzewski, J. Gao, N. Rega, 
 G. Zheng, W. Liang, M. Hada, M. Ehara, K. Toyota, R. Fukuda, 
 J. Hasegawa, M. Ishida, T. Nakajima, Y. Honda, O. Kitao, H. Nakai, 
 T. Vreven, K. Throssell, J. A. Montgomery, Jr., J. E. Peralta, 
 F. Ogliaro, M. J. Bearpark, J. J. Heyd, E. N. Brothers, K. N. Kudin, 
 V. N. Staroverov, T. A. Keith, R. Kobayashi, J. Normand, 
 K. Raghavachari, A. P. Rendell, J. C. Burant, S. S. Iyengar, 
 J. Tomasi, M. Cossi, J. M. Millam, M. Klene, C. Adamo, R. Cammi, 
 J. W. Ochterski, R. L. Martin, K. Morokuma, O. Farkas, 
 J. B. Foresman, and D. J. Fox, Gaussian, Inc., Wallingford CT, 2019.
 
 ******************************************
 Gaussian 16:  ES64L-G16RevC.01  3-Jul-2019
                10-Oct-2025 
 ******************************************
 %nprocshared=32
 Will use up to   32 processors via shared memory.
 %mem=64GB
 %chk=00BDP-NH2_ethanol_wb97xd_wb97xd_wb97xd.chk
 -----------------------------------------------------
 # opt freq wb97xd scrf=(smd,solvent=ethanol) def2tzvp
 -----------------------------------------------------
 1/18=20,19=15,26=3,38=1/1,3;
 2/9=110,12=2,17=6,18=5,40=1/2;
 3/5=44,7=101,11=2,25=1,30=1,70=32201,71=1,72=4,74=-58/1,2,3;
 4//1;
 5/5=2,38=5,53=4/2;
 6/7=2,8=2,9=2,10=2,28=1/1;
 7//1,2,3,16;
 1/18=20,19=15,26=3/3(2);
 2/9=110/2;
 99//99;
 2/9=110/2;
 3/5=44,7=101,11=2,25=1,30=1,70=32205,71=1,72=4,74=-58/1,2,3;
 4/5=5,16=3,69=1/1;
 5/5=2,38=5,53=4/2;
 7//1,2,3,16;
 1/18=20,19=15,26=3/3(-5);
 2/9=110/2;
 6/7=2,8=2,9=2,10=2,19=2,28=1/1;
 99/9=1/99;
 --------------------------------------
 00BDP-NH2_ethanol_wb97xd_wb97xd_wb97xd
 --------------------------------------
 Symbolic Z-matrix:
 Charge =  0 Multiplicity = 1
 C                     0.62395  -1.21433  -0.06559 
 C                     0.62756   1.21627   0.04766 
 C                    -0.09137   0.00191  -0.00522 
 C                     0.17102  -2.54348  -0.23227 
 C                     1.29882  -3.35819  -0.28286 
 C                     2.41082  -2.51188  -0.16517 
 H                     1.32949  -4.43892  -0.40576 
 C                     2.41895   2.50969   0.11657 
 C                     0.17949   2.54991   0.19038 
 C                     1.31005   3.36178   0.22074 
 H                     1.34439   4.44485   0.31987 
 N                     2.01117  -1.23945  -0.0379 
 N                     2.01498   1.23623   0.01578 
 B                     2.94111  -0.00404   0.02261 
 F                     3.7048   -0.02448   1.1926 
 F                     3.79161   0.01326  -1.08445 
 C                    -1.55715   0.0025   -0.00089 
 C                    -2.28974   0.85161  -0.85324 
 C                    -2.28239  -0.84867   0.85573 
 C                    -3.67357   0.8462   -0.85996 
 H                    -1.76029   1.49871  -1.55594 
 C                    -3.6661   -0.84315   0.87474 
 H                    -1.74662  -1.49986   1.54979 
 C                    -4.39872   0.00347   0.01246 
 H                    -4.21747   1.49519  -1.55089 
 H                    -4.20384  -1.49478   1.56798 
 H                    -0.85751   2.86686   0.27752 
 H                     3.47899   2.76266   0.12508 
 H                    -0.86745  -2.85429  -0.32457 
 H                     3.46997  -2.76814  -0.1799 
 N                    -5.75726   0.0284    0.04283 
 H                    -6.25493  -0.70933   0.5255 
 H                    -6.25994   0.50003  -0.6986 
 

 GradGradGradGradGradGradGradGradGradGradGradGradGradGradGradGradGradGrad
 Berny optimization.
 Initialization pass.
                           ----------------------------
                           !    Initial Parameters    !
                           ! (Angstroms and Degrees)  !
 --------------------------                            --------------------------
 ! Name  Definition              Value          Derivative Info.                !
 --------------------------------------------------------------------------------
 ! R1    R(1,3)                  1.4123         estimate D2E/DX2                !
 ! R2    R(1,4)                  1.4141         estimate D2E/DX2                !
 ! R3    R(1,12)                 1.3877         estimate D2E/DX2                !
 ! R4    R(2,3)                  1.4122         estimate D2E/DX2                !
 ! R5    R(2,9)                  1.4141         estimate D2E/DX2                !
 ! R6    R(2,13)                 1.3879         estimate D2E/DX2                !
 ! R7    R(3,17)                 1.4658         estimate D2E/DX2                !
 ! R8    R(4,5)                  1.3922         estimate D2E/DX2                !
 ! R9    R(4,29)                 1.0879         estimate D2E/DX2                !
 ! R10   R(5,6)                  1.4024         estimate D2E/DX2                !
 ! R11   R(5,7)                  1.0881         estimate D2E/DX2                !
 ! R12   R(6,12)                 1.3398         estimate D2E/DX2                !
 ! R13   R(6,30)                 1.0898         estimate D2E/DX2                !
 ! R14   R(8,10)                 1.4023         estimate D2E/DX2                !
 ! R15   R(8,13)                 1.3398         estimate D2E/DX2                !
 ! R16   R(8,28)                 1.0898         estimate D2E/DX2                !
 ! R17   R(9,10)                 1.3922         estimate D2E/DX2                !
 ! R18   R(9,27)                 1.0879         estimate D2E/DX2                !
 ! R19   R(10,11)                1.0881         estimate D2E/DX2                !
 ! R20   R(12,14)                1.5475         estimate D2E/DX2                !
 ! R21   R(13,14)                1.5479         estimate D2E/DX2                !
 ! R22   R(14,15)                1.3973         estimate D2E/DX2                !
 ! R23   R(14,16)                1.3961         estimate D2E/DX2                !
 ! R24   R(17,18)                1.4086         estimate D2E/DX2                !
 ! R25   R(17,19)                1.4086         estimate D2E/DX2                !
 ! R26   R(18,20)                1.3839         estimate D2E/DX2                !
 ! R27   R(18,21)                1.0922         estimate D2E/DX2                !
 ! R28   R(19,22)                1.3838         estimate D2E/DX2                !
 ! R29   R(19,23)                1.0922         estimate D2E/DX2                !
 ! R30   R(20,24)                1.4132         estimate D2E/DX2                !
 ! R31   R(20,25)                1.0929         estimate D2E/DX2                !
 ! R32   R(22,24)                1.4132         estimate D2E/DX2                !
 ! R33   R(22,26)                1.0929         estimate D2E/DX2                !
 ! R34   R(24,31)                1.3591         estimate D2E/DX2                !
 ! R35   R(31,32)                1.0124         estimate D2E/DX2                !
 ! R36   R(31,33)                1.0123         estimate D2E/DX2                !
 ! A1    A(3,1,4)              130.7135         estimate D2E/DX2                !
 ! A2    A(3,1,12)             121.4025         estimate D2E/DX2                !
 ! A3    A(4,1,12)             107.7898         estimate D2E/DX2                !
 ! A4    A(3,2,9)              130.8018         estimate D2E/DX2                !
 ! A5    A(3,2,13)             121.3587         estimate D2E/DX2                !
 ! A6    A(9,2,13)             107.788          estimate D2E/DX2                !
 ! A7    A(1,3,2)              118.966          estimate D2E/DX2                !
 ! A8    A(1,3,17)             120.4618         estimate D2E/DX2                !
 ! A9    A(2,3,17)             120.5721         estimate D2E/DX2                !
 ! A10   A(1,4,5)              107.1495         estimate D2E/DX2                !
 ! A11   A(1,4,29)             125.7532         estimate D2E/DX2                !
 ! A12   A(5,4,29)             127.0844         estimate D2E/DX2                !
 ! A13   A(4,5,6)              106.6274         estimate D2E/DX2                !
 ! A14   A(4,5,7)              127.4559         estimate D2E/DX2                !
 ! A15   A(6,5,7)              125.9097         estimate D2E/DX2                !
 ! A16   A(5,6,12)             110.1565         estimate D2E/DX2                !
 ! A17   A(5,6,30)             128.8732         estimate D2E/DX2                !
 ! A18   A(12,6,30)            120.965          estimate D2E/DX2                !
 ! A19   A(10,8,13)            110.1638         estimate D2E/DX2                !
 ! A20   A(10,8,28)            128.8665         estimate D2E/DX2                !
 ! A21   A(13,8,28)            120.9625         estimate D2E/DX2                !
 ! A22   A(2,9,10)             107.1496         estimate D2E/DX2                !
 ! A23   A(2,9,27)             125.7962         estimate D2E/DX2                !
 ! A24   A(10,9,27)            127.0454         estimate D2E/DX2                !
 ! A25   A(8,10,9)             106.6293         estimate D2E/DX2                !
 ! A26   A(8,10,11)            125.9163         estimate D2E/DX2                !
 ! A27   A(9,10,11)            127.4491         estimate D2E/DX2                !
 ! A28   A(1,12,6)             108.2694         estimate D2E/DX2                !
 ! A29   A(1,12,14)            125.9479         estimate D2E/DX2                !
 ! A30   A(6,12,14)            125.6381         estimate D2E/DX2                !
 ! A31   A(2,13,8)             108.2605         estimate D2E/DX2                !
 ! A32   A(2,13,14)            125.9068         estimate D2E/DX2                !
 ! A33   A(8,13,14)            125.5107         estimate D2E/DX2                !
 ! A34   A(12,14,13)           106.2573         estimate D2E/DX2                !
 ! A35   A(12,14,15)           110.4565         estimate D2E/DX2                !
 ! A36   A(12,14,16)           110.1796         estimate D2E/DX2                !
 ! A37   A(13,14,15)           110.024          estimate D2E/DX2                !
 ! A38   A(13,14,16)           110.5517         estimate D2E/DX2                !
 ! A39   A(15,14,16)           109.3401         estimate D2E/DX2                !
 ! A40   A(3,17,18)            121.2337         estimate D2E/DX2                !
 ! A41   A(3,17,19)            121.092          estimate D2E/DX2                !
 ! A42   A(18,17,19)           117.6742         estimate D2E/DX2                !
 ! A43   A(17,18,20)           121.376          estimate D2E/DX2                !
 ! A44   A(17,18,21)           119.6269         estimate D2E/DX2                !
 ! A45   A(20,18,21)           118.9439         estimate D2E/DX2                !
 ! A46   A(17,19,22)           121.3827         estimate D2E/DX2                !
 ! A47   A(17,19,23)           119.6144         estimate D2E/DX2                !
 ! A48   A(22,19,23)           118.9571         estimate D2E/DX2                !
 ! A49   A(18,20,24)           120.8269         estimate D2E/DX2                !
 ! A50   A(18,20,25)           119.895          estimate D2E/DX2                !
 ! A51   A(24,20,25)           119.277          estimate D2E/DX2                !
 ! A52   A(19,22,24)           120.8221         estimate D2E/DX2                !
 ! A53   A(19,22,26)           119.8896         estimate D2E/DX2                !
 ! A54   A(24,22,26)           119.287          estimate D2E/DX2                !
 ! A55   A(20,24,22)           117.8999         estimate D2E/DX2                !
 ! A56   A(20,24,31)           121.0486         estimate D2E/DX2                !
 ! A57   A(22,24,31)           121.0349         estimate D2E/DX2                !
 ! A58   A(24,31,32)           119.2537         estimate D2E/DX2                !
 ! A59   A(24,31,33)           119.2436         estimate D2E/DX2                !
 ! A60   A(32,31,33)           116.396          estimate D2E/DX2                !
 ! D1    D(4,1,3,2)           -174.2732         estimate D2E/DX2                !
 ! D2    D(4,1,3,17)             5.5795         estimate D2E/DX2                !
 ! D3    D(12,1,3,2)             1.7408         estimate D2E/DX2                !
 ! D4    D(12,1,3,17)         -178.4065         estimate D2E/DX2                !
 ! D5    D(3,1,4,5)            177.3049         estimate D2E/DX2                !
 ! D6    D(3,1,4,29)            -1.4641         estimate D2E/DX2                !
 ! D7    D(12,1,4,5)             0.8773         estimate D2E/DX2                !
 ! D8    D(12,1,4,29)         -177.8917         estimate D2E/DX2                !
 ! D9    D(3,1,12,6)          -177.4488         estimate D2E/DX2                !
 ! D10   D(3,1,12,14)           -1.6317         estimate D2E/DX2                !
 ! D11   D(4,1,12,6)            -0.6208         estimate D2E/DX2                !
 ! D12   D(4,1,12,14)          175.1962         estimate D2E/DX2                !
 ! D13   D(9,2,3,1)           -175.8121         estimate D2E/DX2                !
 ! D14   D(9,2,3,17)             4.3354         estimate D2E/DX2                !
 ! D15   D(13,2,3,1)             1.2388         estimate D2E/DX2                !
 ! D16   D(13,2,3,17)         -178.6137         estimate D2E/DX2                !
 ! D17   D(3,2,9,10)           178.3105         estimate D2E/DX2                !
 ! D18   D(3,2,9,27)            -0.6731         estimate D2E/DX2                !
 ! D19   D(13,2,9,10)            0.9549         estimate D2E/DX2                !
 ! D20   D(13,2,9,27)         -178.0286         estimate D2E/DX2                !
 ! D21   D(3,2,13,8)          -178.3369         estimate D2E/DX2                !
 ! D22   D(3,2,13,14)           -4.5826         estimate D2E/DX2                !
 ! D23   D(9,2,13,8)            -0.6809         estimate D2E/DX2                !
 ! D24   D(9,2,13,14)          173.0733         estimate D2E/DX2                !
 ! D25   D(1,3,17,18)         -132.0658         estimate D2E/DX2                !
 ! D26   D(1,3,17,19)           47.8441         estimate D2E/DX2                !
 ! D27   D(2,3,17,18)           47.7845         estimate D2E/DX2                !
 ! D28   D(2,3,17,19)         -132.3056         estimate D2E/DX2                !
 ! D29   D(1,4,5,6)             -0.7899         estimate D2E/DX2                !
 ! D30   D(1,4,5,7)           -179.8679         estimate D2E/DX2                !
 ! D31   D(29,4,5,6)           177.9579         estimate D2E/DX2                !
 ! D32   D(29,4,5,7)            -1.1201         estimate D2E/DX2                !
 ! D33   D(4,5,6,12)             0.426          estimate D2E/DX2                !
 ! D34   D(4,5,6,30)          -178.7297         estimate D2E/DX2                !
 ! D35   D(7,5,6,12)           179.5224         estimate D2E/DX2                !
 ! D36   D(7,5,6,30)             0.3666         estimate D2E/DX2                !
 ! D37   D(5,6,12,1)             0.1245         estimate D2E/DX2                !
 ! D38   D(5,6,12,14)         -175.7089         estimate D2E/DX2                !
 ! D39   D(30,6,12,1)          179.3579         estimate D2E/DX2                !
 ! D40   D(30,6,12,14)           3.5246         estimate D2E/DX2                !
 ! D41   D(13,8,10,9)            0.4553         estimate D2E/DX2                !
 ! D42   D(13,8,10,11)         179.6653         estimate D2E/DX2                !
 ! D43   D(28,8,10,9)         -178.5638         estimate D2E/DX2                !
 ! D44   D(28,8,10,11)           0.6463         estimate D2E/DX2                !
 ! D45   D(10,8,13,2)            0.144          estimate D2E/DX2                !
 ! D46   D(10,8,13,14)        -173.6414         estimate D2E/DX2                !
 ! D47   D(28,8,13,2)          179.2533         estimate D2E/DX2                !
 ! D48   D(28,8,13,14)           5.4679         estimate D2E/DX2                !
 ! D49   D(2,9,10,8)            -0.8548         estimate D2E/DX2                !
 ! D50   D(2,9,10,11)          179.951          estimate D2E/DX2                !
 ! D51   D(27,9,10,8)          178.1123         estimate D2E/DX2                !
 ! D52   D(27,9,10,11)          -1.0819         estimate D2E/DX2                !
 ! D53   D(1,12,14,13)          -1.1294         estimate D2E/DX2                !
 ! D54   D(1,12,14,15)         118.1756         estimate D2E/DX2                !
 ! D55   D(1,12,14,16)        -120.9155         estimate D2E/DX2                !
 ! D56   D(6,12,14,13)         173.9815         estimate D2E/DX2                !
 ! D57   D(6,12,14,15)         -66.7135         estimate D2E/DX2                !
 ! D58   D(6,12,14,16)          54.1954         estimate D2E/DX2                !
 ! D59   D(2,13,14,12)           4.216          estimate D2E/DX2                !
 ! D60   D(2,13,14,15)        -115.3715         estimate D2E/DX2                !
 ! D61   D(2,13,14,16)         123.7595         estimate D2E/DX2                !
 ! D62   D(8,13,14,12)         176.9243         estimate D2E/DX2                !
 ! D63   D(8,13,14,15)          57.3368         estimate D2E/DX2                !
 ! D64   D(8,13,14,16)         -63.5322         estimate D2E/DX2                !
 ! D65   D(3,17,18,20)         179.425          estimate D2E/DX2                !
 ! D66   D(3,17,18,21)           2.1054         estimate D2E/DX2                !
 ! D67   D(19,17,18,20)         -0.4879         estimate D2E/DX2                !
 ! D68   D(19,17,18,21)       -177.8074         estimate D2E/DX2                !
 ! D69   D(3,17,19,22)         179.3187         estimate D2E/DX2                !
 ! D70   D(3,17,19,23)           1.8044         estimate D2E/DX2                !
 ! D71   D(18,17,19,22)         -0.7683         estimate D2E/DX2                !
 ! D72   D(18,17,19,23)       -178.2826         estimate D2E/DX2                !
 ! D73   D(17,18,20,24)          1.3115         estimate D2E/DX2                !
 ! D74   D(17,18,20,25)       -178.3028         estimate D2E/DX2                !
 ! D75   D(21,18,20,24)        178.6489         estimate D2E/DX2                !
 ! D76   D(21,18,20,25)         -0.9654         estimate D2E/DX2                !
 ! D77   D(17,19,22,24)          1.2056         estimate D2E/DX2                !
 ! D78   D(17,19,22,26)       -178.3793         estimate D2E/DX2                !
 ! D79   D(23,19,22,24)        178.7359         estimate D2E/DX2                !
 ! D80   D(23,19,22,26)         -0.849          estimate D2E/DX2                !
 ! D81   D(18,20,24,22)         -0.865          estimate D2E/DX2                !
 ! D82   D(18,20,24,31)        177.6663         estimate D2E/DX2                !
 ! D83   D(25,20,24,22)        178.7517         estimate D2E/DX2                !
 ! D84   D(25,20,24,31)         -2.717          estimate D2E/DX2                !
 ! D85   D(19,22,24,20)         -0.3784         estimate D2E/DX2                !
 ! D86   D(19,22,24,31)       -178.9099         estimate D2E/DX2                !
 ! D87   D(26,22,24,20)        179.2091         estimate D2E/DX2                !
 ! D88   D(26,22,24,31)          0.6776         estimate D2E/DX2                !
 ! D89   D(20,24,31,32)        167.2663         estimate D2E/DX2                !
 ! D90   D(20,24,31,33)         13.4239         estimate D2E/DX2                !
 ! D91   D(22,24,31,32)        -14.2485         estimate D2E/DX2                !
 ! D92   D(22,24,31,33)       -168.091          estimate D2E/DX2                !
 --------------------------------------------------------------------------------
 Trust Radius=3.00D-01 FncErr=1.00D-07 GrdErr=1.00D-06 EigMax=2.50D+02 EigMin=1.00D-04
 Number of steps in this run=    198 maximum allowed number of steps=    198.
 GradGradGradGradGradGradGradGradGradGradGradGradGradGradGradGradGradGrad

                          Input orientation:                          
 ---------------------------------------------------------------------
 Center     Atomic      Atomic             Coordinates (Angstroms)
 Number     Number       Type             X           Y           Z
 ---------------------------------------------------------------------
      1          6           0        0.623950   -1.214325   -0.065594
      2          6           0        0.627556    1.216274    0.047662
      3          6           0       -0.091367    0.001912   -0.005223
      4          6           0        0.171021   -2.543476   -0.232271
      5          6           0        1.298817   -3.358185   -0.282863
      6          6           0        2.410823   -2.511880   -0.165166
      7          1           0        1.329485   -4.438921   -0.405755
      8          6           0        2.418946    2.509689    0.116571
      9          6           0        0.179491    2.549905    0.190383
     10          6           0        1.310047    3.361780    0.220743
     11          1           0        1.344385    4.444846    0.319867
     12          7           0        2.011169   -1.239445   -0.037899
     13          7           0        2.014983    1.236228    0.015783
     14          5           0        2.941108   -0.004036    0.022608
     15          9           0        3.704802   -0.024479    1.192598
     16          9           0        3.791607    0.013260   -1.084451
     17          6           0       -1.557145    0.002497   -0.000887
     18          6           0       -2.289738    0.851612   -0.853236
     19          6           0       -2.282393   -0.848666    0.855729
     20          6           0       -3.673572    0.846196   -0.859960
     21          1           0       -1.760286    1.498705   -1.555940
     22          6           0       -3.666101   -0.843150    0.874742
     23          1           0       -1.746618   -1.499864    1.549792
     24          6           0       -4.398716    0.003473    0.012462
     25          1           0       -4.217473    1.495186   -1.550892
     26          1           0       -4.203838   -1.494782    1.567976
     27          1           0       -0.857514    2.866863    0.277516
     28          1           0        3.478985    2.762656    0.125084
     29          1           0       -0.867447   -2.854294   -0.324569
     30          1           0        3.469973   -2.768143   -0.179898
     31          7           0       -5.757255    0.028398    0.042830
     32          1           0       -6.254933   -0.709333    0.525504
     33          1           0       -6.259937    0.500028   -0.698600
 ---------------------------------------------------------------------
                    Distance matrix (angstroms):
                    1          2          3          4          5
     1  C    0.000000
     2  C    2.433239   0.000000
     3  C    1.412287   1.412205   0.000000
     4  C    1.414061   3.797698   2.568929   0.000000
     5  C    2.258049   4.635247   3.646909   1.392205   0.000000
     6  C    2.210538   4.138172   3.550449   2.241030   1.402370
     7  H    3.318359   5.716601   4.679770   2.228194   1.088133
     8  C    4.138052   2.210599   3.550416   5.541600   5.987168
     9  C    3.799012   1.414109   2.569804   5.110894   6.031781
    10  C    4.636103   2.258085   3.647429   6.031140   6.738818
    11  H    5.717851   3.318376   4.680463   7.107622   7.826407
    12  N    1.387723   2.819975   2.441863   2.263719   2.248669
    13  N    2.819008   1.387937   2.441452   4.212824   4.659476
    14  B    2.615684   2.615780   3.032609   3.766577   3.747099
    15  F    3.534180   3.509956   3.980750   4.567626   4.367991
    16  F    3.546701   3.569333   4.030180   4.513508   4.268862
    17  C    2.498403   2.499706   1.465785   3.085786   4.419300
    18  C    3.657602   3.074931   2.504786   4.238815   5.561065
    19  C    3.070728   3.658518   2.503061   3.174172   4.518755
    20  C    4.831714   4.411399   3.778304   5.163794   6.537164
    21  H    3.907204   2.890172   2.725877   4.671325   5.879474
    22  C    4.407555   4.833299   3.777194   4.340517   5.684704
    23  H    2.882811   3.907749   2.722730   2.818193   4.010817
    24  C    5.168781   5.170642   4.307386   5.237303   6.621921
    25  H    5.743426   5.109547   4.652280   6.108063   7.456042
    26  H    5.104385   5.744871   4.650534   4.845621   6.097302
    27  H    4.355291   2.232198   2.979071   5.530781   6.611733
    28  H    4.899384   3.244679   4.515097   6.263016   6.510319
    29  H    2.231778   4.352369   2.976944   1.087907   2.224488
    30  H    3.244574   4.899663   4.515181   3.307008   2.252259
    31  N    6.501992   6.494373   5.666154   6.467973   7.833465
    32  H    6.922676   7.162747   6.227125   6.725414   8.045434
    33  H    7.122331   6.964731   6.227371   7.130049   8.496670
                    6          7          8          9         10
     6  C    0.000000
     7  H    2.222760   0.000000
     8  C    5.029473   7.052867   0.000000
     9  C    5.543187   7.107852   2.241032   0.000000
    10  C    5.988365   7.825843   1.402344   1.392200   0.000000
    11  H    7.054685   8.913364   2.222801   2.228126   1.088134
    12  N    1.339780   3.291908   3.774407   4.215013   4.661517
    13  N    3.773294   5.731921   1.339794   2.263904   2.248758
    14  B    2.570164   4.738041   2.569104   3.765274   3.745442
    15  F    3.115296   5.261574   3.038629   4.478806   4.259824
    16  F    3.021255   5.132698   3.091732   4.594252   4.367409
    17  C    4.700409   5.312508   4.702032   3.088977   4.422069
    18  C    5.820807   6.425633   5.085415   3.173394   4.518056
    19  C    5.082793   5.246612   5.824731   4.248981   5.571058
    20  C    6.984216   7.291731   6.390587   4.341882   5.686171
    21  H    5.951235   6.791540   4.613606   2.813788   4.006819
    22  C    6.387102   6.286901   6.988859   5.173949   6.547610
    23  H    4.609726   4.682374   5.956724   4.685992   5.894502
    24  C    7.261431   7.260996   7.264466   5.241751   6.626581
    25  H    7.868362   8.203274   6.917493   4.845386   6.097240
    26  H    6.913177   6.571243   7.874239   6.121342   7.470218
    27  H    6.309427   7.656651   3.299798   1.087857   2.224070
    28  H    5.389429   7.534245   1.089838   3.306991   2.252197
    29  H    3.299956   2.710008   6.306132   5.528709   6.608965
    30  H    1.089810   2.724738   5.389625   6.264664   6.511663
    31  N    8.556505   8.389282   8.544736   6.451722   7.815999
    32  H    8.878149   8.502968   9.260967   7.220578   8.596264
    33  H    9.194467   9.059708   8.945739   6.816049   8.144905
                   11         12         13         14         15
    11  H    0.000000
    12  N    5.734436   0.000000
    13  N    3.292020   2.476258   0.000000
    14  B    4.736078   1.547476   1.547905   0.000000
    15  F    5.129142   2.420466   2.414490   1.397327   0.000000
    16  F    5.253566   2.415471   2.421272   1.396147   2.279015
    17  C    5.315658   3.778446   3.779215   4.498319   5.395667
    18  C    5.243506   4.851298   4.408372   5.372242   6.394332
    19  C    6.439094   4.402948   4.849715   5.356534   6.053038
    20  C    6.286666   6.110807   5.768770   6.727244   7.707884
    21  H    4.673048   4.901611   4.097788   5.182002   6.304105
    22  C    7.305871   5.763797   6.110347   6.714570   7.423036
    23  H    6.812238   4.087731   4.897859   5.152142   5.658827
    24  C    7.266602   6.529472   6.531097   7.339835   8.189048
    25  H    6.567686   6.968740   6.431566   7.481233   8.520479
    26  H    8.223122   6.424200   6.967170   7.460613   8.052905
    27  H    2.709277   5.019023   3.313414   4.768288   5.478317
    28  H    2.724742   4.265895   2.117836   2.820354   2.993109
    29  H    7.654080   3.313057   5.015637   4.769653   5.587048
    30  H    7.536252   2.117827   4.265006   2.821523   3.076781
    31  N    8.367500   7.871617   7.865575   8.698447   9.531804
    32  H    9.184633   8.302222   8.510966   9.236748  10.005517
    33  H    8.626968   8.477823   8.338263   9.243022  10.156169
                   16         17         18         19         20
    16  F    0.000000
    17  C    5.457415   0.000000
    18  C    6.143212   1.408612   0.000000
    19  C    6.434337   1.408636   2.410718   0.000000
    20  C    7.514857   2.434974   1.383861   2.784156   0.000000
    21  H    5.766486   2.167509   1.092173   3.405715   2.137947
    22  C    7.758175   2.435065   2.784331   1.383850   2.421391
    23  H    6.316701   2.167393   3.405725   1.092171   3.876087
    24  C    8.263456   2.841603   2.432398   2.432296   1.413201
    25  H    8.158372   3.421693   2.148738   3.876855   1.092888
    26  H    8.557844   3.421719   3.877062   2.148654   3.414123
    27  H    5.622484   2.961686   2.718658   4.021165   3.647894
    28  H    3.019915   5.744297   6.155271   6.838784   7.470087
    29  H    5.523321   2.956638   4.004515   2.723549   4.674891
    30  H    2.942425   5.742857   6.835955   6.151961   8.034685
    31  N    9.615184   4.200417   3.674818   3.674876   2.413619
    32  H   10.200346   4.780481   4.478866   3.988676   3.317018
    33  H   10.070718   4.780229   3.988735   4.478367   2.614413
                   21         22         23         24         25
    21  H    0.000000
    22  C    3.876162   0.000000
    23  H    4.317079   2.138079   0.000000
    24  C    3.414223   1.413160   3.414239   0.000000
    25  H    2.457195   3.414019   4.968872   2.168440   0.000000
    26  H    4.968980   1.092867   2.457293   2.168495   4.320582
    27  H    2.459352   4.691379   4.634382   4.561729   4.063730
    28  H    5.645651   8.038413   6.892445   8.347691   7.978148
    29  H    4.611078   3.649043   2.473995   4.555248   5.625346
    30  H    6.888766   7.466017   5.640317   8.344766   8.896765
    31  N    4.549025   2.413421   4.548816   1.359107   2.657507
    32  H    5.423070   2.615707   4.690310   2.053496   3.650009
    33  H    4.688203   3.317758   5.424471   2.053368   2.426603
                   26         27         28         29         30
    26  H    0.000000
    27  H    5.646868   0.000000
    28  H    8.901319   4.340428   0.000000
    29  H    4.069583   5.752760   7.116445   0.000000
    30  H    7.972696   7.119667   5.539209   4.340687   0.000000
    31  N    2.656925   5.667400   9.632812   5.688156   9.644272
    32  H    2.431187   6.479414  10.342350   5.860758   9.965445
    33  H    3.652968   5.978368  10.032175   6.361629  10.277215
                   31         32         33
    31  N    0.000000
    32  H    1.012376   0.000000
    33  H    1.012345   1.720758   0.000000
 Stoichiometry    C15H12BF2N3
 Framework group  C1[X(C15H12BF2N3)]
 Deg. of freedom    93
 Full point group                 C1      NOp   1
 Largest Abelian subgroup         C1      NOp   1
 Largest concise Abelian subgroup C1      NOp   1
                         Standard orientation:                         
 ---------------------------------------------------------------------
 Center     Atomic      Atomic             Coordinates (Angstroms)
 Number     Number       Type             X           Y           Z
 ---------------------------------------------------------------------
      1          6           0        0.623950   -1.214325   -0.065594
      2          6           0        0.627556    1.216274    0.047662
      3          6           0       -0.091367    0.001912   -0.005223
      4          6           0        0.171021   -2.543476   -0.232271
      5          6           0        1.298817   -3.358185   -0.282863
      6          6           0        2.410823   -2.511880   -0.165166
      7          1           0        1.329485   -4.438921   -0.405755
      8          6           0        2.418946    2.509689    0.116571
      9          6           0        0.179491    2.549905    0.190383
     10          6           0        1.310047    3.361780    0.220743
     11          1           0        1.344385    4.444846    0.319867
     12          7           0        2.011169   -1.239445   -0.037899
     13          7           0        2.014983    1.236228    0.015783
     14          5           0        2.941108   -0.004036    0.022608
     15          9           0        3.704802   -0.024479    1.192598
     16          9           0        3.791607    0.013260   -1.084451
     17          6           0       -1.557145    0.002497   -0.000887
     18          6           0       -2.289738    0.851612   -0.853236
     19          6           0       -2.282393   -0.848666    0.855729
     20          6           0       -3.673572    0.846196   -0.859960
     21          1           0       -1.760286    1.498705   -1.555940
     22          6           0       -3.666101   -0.843150    0.874742
     23          1           0       -1.746618   -1.499864    1.549792
     24          6           0       -4.398716    0.003473    0.012462
     25          1           0       -4.217473    1.495186   -1.550892
     26          1           0       -4.203838   -1.494782    1.567976
     27          1           0       -0.857514    2.866863    0.277516
     28          1           0        3.478985    2.762656    0.125084
     29          1           0       -0.867447   -2.854294   -0.324569
     30          1           0        3.469973   -2.768143   -0.179898
     31          7           0       -5.757255    0.028398    0.042830
     32          1           0       -6.254933   -0.709333    0.525504
     33          1           0       -6.259937    0.500028   -0.698600
 ---------------------------------------------------------------------
 Rotational constants (GHZ):           0.5799245           0.2146276           0.1669170
 Standard basis: def2TZVP (5D, 7F)
 There are   828 symmetry adapted cartesian basis functions of A   symmetry.
 There are   723 symmetry adapted basis functions of A   symmetry.
   723 basis functions,  1167 primitive gaussians,   828 cartesian basis functions
    73 alpha electrons       73 beta electrons
       nuclear repulsion energy      1589.6986751008 Hartrees.
 NAtoms=   33 NActive=   33 NUniq=   33 SFac= 1.00D+00 NAtFMM=   60 NAOKFM=F Big=F
 Integral buffers will be    131072 words long.
 Raffenetti 2 integral format.
 Two-electron integral symmetry is turned on.
 Nuclear repulsion after empirical dispersion term =     1589.6733796713 Hartrees.
 ------------------------------------------------------------------------------
 Polarizable Continuum Model (PCM)
 =================================
 Model                : PCM.
 Atomic radii         : SMD-Coulomb.
 Polarization charges : Total charges.
 Charge compensation  : None.
 Solution method      : On-the-fly selection.
 Cavity type          : VdW (van der Waals Surface) (Alpha=1.000).
 Cavity algorithm     : GePol (No added spheres)
                        Default sphere list used, NSphG=   33.
                        Lebedev-Laikov grids with approx.  5.0 points / Ang**2.
                        Smoothing algorithm: York/Karplus (Gamma=1.0000).
                        Polarization charges: spherical gaussians, with
                                              point-specific exponents (IZeta= 3).
                        Self-potential: point-specific (ISelfS= 7).
                        Self-field    : sphere-specific E.n sum rule (ISelfD= 2).
 1st derivatives      : Analytical E(r).r(x)/FMM algorithm (CHGder, D1EAlg=3).
                        Cavity 1st derivative terms included.
 Solvent              : Ethanol, Eps=  24.852000 Eps(inf)=   1.852593
 ------------------------------------------------------------------------------
 ------------------------------------------------------------------------------
 Atomic radii for non-electrostatic terms: SMD-CDS.
 ------------------------------------------------------------------------------
 Nuclear repulsion after PCM non-electrostatic terms =     1589.6725729784 Hartrees.
 One-electron integrals computed using PRISM.
   1 Symmetry operations used in ECPInt.
 ECPInt:  NShTT=   39060 NPrTT=  121776 LenC2=   34375 LenP2D=   76749.
 LDataN:  DoStor=T MaxTD1= 6 Len=  172
 NBasis=   723 RedAO= T EigKep=  7.85D-06  NBF=   723
 NBsUse=   723 1.00D-06 EigRej= -1.00D+00 NBFU=   723
 ExpMin= 6.06D-02 ExpMax= 3.55D+04 ExpMxC= 1.21D+03 IAcc=3 IRadAn=         5 AccDes= 0.00D+00
 Harris functional with IExCor= 4639 and IRadAn=       5 diagonalized for initial guess.
 HarFok:  IExCor= 4639 AccDes= 0.00D+00 IRadAn=         5 IDoV= 1 UseB2=F ITyADJ=14
 ICtDFT=  3500011 ScaDFX=  1.000000  1.000000  1.000000  1.000000
 FoFCou: FMM=F IPFlag=           0 FMFlag=      100000 FMFlg1=           0
         NFxFlg=           0 DoJE=T BraDBF=F KetDBF=T FulRan=T
         wScrn=  0.000000 ICntrl=       500 IOpCl=  0 I1Cent=   200000004 NGrid=           0
         NMat0=    1 NMatS0=      1 NMatT0=    0 NMatD0=    1 NMtDS0=    0 NMtDT0=    0
 Petite list used in FoFCou.
 Requested convergence on RMS density matrix=1.00D-08 within 128 cycles.
 Requested convergence on MAX density matrix=1.00D-06.
 Requested convergence on             energy=1.00D-06.
 No special actions if energy rises.
 Inv3:  Mode=1 IEnd=    19722288.
 Iteration    1 A*A^-1 deviation from unit magnitude is 5.22D-15 for   2545.
 Iteration    1 A*A^-1 deviation from orthogonality  is 2.02D-15 for   2562    586.
 Iteration    1 A^-1*A deviation from unit magnitude is 5.00D-15 for   2545.
 Iteration    1 A^-1*A deviation from orthogonality  is 1.86D-15 for   1585   1024.
 Error on total polarization charges =  0.04733
 SCF Done:  E(RwB97XD) =  -967.871438297     A.U. after   15 cycles
            NFock= 15  Conv=0.40D-08     -V/T= 2.0050
 SMD-CDS (non-electrostatic) energy       (kcal/mol) =      -0.51
 (included in total energy above)

 **********************************************************************

            Population analysis using the SCF Density.

 **********************************************************************

 Orbital symmetries:
       Occupied  (A) (A) (A) (A) (A) (A) (A) (A) (A) (A) (A) (A)
                 (A) (A) (A) (A) (A) (A) (A) (A) (A) (A) (A) (A)
                 (A) (A) (A) (A) (A) (A) (A) (A) (A) (A) (A) (A)
                 (A) (A) (A) (A) (A) (A) (A) (A) (A) (A) (A) (A)
                 (A) (A) (A) (A) (A) (A) (A) (A) (A) (A) (A) (A)
                 (A) (A) (A) (A) (A) (A) (A) (A) (A) (A) (A) (A)
                 (A)
       Virtual   (A) (A) (A) (A) (A) (A) (A) (A) (A) (A) (A) (A)
                 (A) (A) (A) (A) (A) (A) (A) (A) (A) (A) (A) (A)
                 (A) (A) (A) (A) (A) (A) (A) (A) (A) (A) (A) (A)
                 (A) (A) (A) (A) (A) (A) (A) (A) (A) (A) (A) (A)
                 (A) (A) (A) (A) (A) (A) (A) (A) (A) (A) (A) (A)
                 (A) (A) (A) (A) (A) (A) (A) (A) (A) (A) (A) (A)
                 (A) (A) (A) (A) (A) (A) (A) (A) (A) (A) (A) (A)
                 (A) (A) (A) (A) (A) (A) (A) (A) (A) (A) (A) (A)
                 (A) (A) (A) (A) (A) (A) (A) (A) (A) (A) (A) (A)
                 (A) (A) (A) (A) (A) (A) (A) (A) (A) (A) (A) (A)
                 (A) (A) (A) (A) (A) (A) (A) (A) (A) (A) (A) (A)
                 (A) (A) (A) (A) (A) (A) (A) (A) (A) (A) (A) (A)
                 (A) (A) (A) (A) (A) (A) (A) (A) (A) (A) (A) (A)
                 (A) (A) (A) (A) (A) (A) (A) (A) (A) (A) (A) (A)
                 (A) (A) (A) (A) (A) (A) (A) (A) (A) (A) (A) (A)
                 (A) (A) (A) (A) (A) (A) (A) (A) (A) (A) (A) (A)
                 (A) (A) (A) (A) (A) (A) (A) (A) (A) (A) (A) (A)
                 (A) (A) (A) (A) (A) (A) (A) (A) (A) (A) (A) (A)
                 (A) (A) (A) (A) (A) (A) (A) (A) (A) (A) (A) (A)
                 (A) (A) (A) (A) (A) (A) (A) (A) (A) (A) (A) (A)
                 (A) (A) (A) (A) (A) (A) (A) (A) (A) (A) (A) (A)
                 (A) (A) (A) (A) (A) (A) (A) (A) (A) (A) (A) (A)
                 (A) (A) (A) (A) (A) (A) (A) (A) (A) (A) (A) (A)
                 (A) (A) (A) (A) (A) (A) (A) (A) (A) (A) (A) (A)
                 (A) (A) (A) (A) (A) (A) (A) (A) (A) (A) (A) (A)
                 (A) (A) (A) (A) (A) (A) (A) (A) (A) (A) (A) (A)
                 (A) (A) (A) (A) (A) (A) (A) (A) (A) (A) (A) (A)
                 (A) (A) (A) (A) (A) (A) (A) (A) (A) (A) (A) (A)
                 (A) (A) (A) (A) (A) (A) (A) (A) (A) (A) (A) (A)
                 (A) (A) (A) (A) (A) (A) (A) (A) (A) (A) (A) (A)
                 (A) (A) (A) (A) (A) (A) (A) (A) (A) (A) (A) (A)
                 (A) (A) (A) (A) (A) (A) (A) (A) (A) (A) (A) (A)
                 (A) (A) (A) (A) (A) (A) (A) (A) (A) (A) (A) (A)
                 (A) (A) (A) (A) (A) (A) (A) (A) (A) (A) (A) (A)
                 (A) (A) (A) (A) (A) (A) (A) (A) (A) (A) (A) (A)
                 (A) (A) (A) (A) (A) (A) (A) (A) (A) (A) (A) (A)
                 (A) (A) (A) (A) (A) (A) (A) (A) (A) (A) (A) (A)
                 (A) (A) (A) (A) (A) (A) (A) (A) (A) (A) (A) (A)
                 (A) (A) (A) (A) (A) (A) (A) (A) (A) (A) (A) (A)
                 (A) (A) (A) (A) (A) (A) (A) (A) (A) (A) (A) (A)
                 (A) (A) (A) (A) (A) (A) (A) (A) (A) (A) (A) (A)
                 (A) (A) (A) (A) (A) (A) (A) (A) (A) (A) (A) (A)
                 (A) (A) (A) (A) (A) (A) (A) (A) (A) (A) (A) (A)
                 (A) (A) (A) (A) (A) (A) (A) (A) (A) (A) (A) (A)
                 (A) (A) (A) (A) (A) (A) (A) (A) (A) (A) (A) (A)
                 (A) (A) (A) (A) (A) (A) (A) (A) (A) (A) (A) (A)
                 (A) (A) (A) (A) (A) (A) (A) (A) (A) (A) (A) (A)
                 (A) (A) (A) (A) (A) (A) (A) (A) (A) (A) (A) (A)
                 (A) (A) (A) (A) (A) (A) (A) (A) (A) (A) (A) (A)
                 (A) (A) (A) (A) (A) (A) (A) (A) (A) (A) (A) (A)
                 (A) (A) (A) (A) (A) (A) (A) (A) (A) (A) (A) (A)
                 (A) (A) (A) (A) (A) (A) (A) (A) (A) (A) (A) (A)
                 (A) (A) (A) (A) (A) (A) (A) (A) (A) (A) (A) (A)
                 (A) (A) (A) (A) (A) (A) (A) (A) (A) (A) (A) (A)
                 (A) (A)
 The electronic state is 1-A.
 Alpha  occ. eigenvalues --  -24.76561 -24.76502 -14.47003 -14.46995 -14.44080
 Alpha  occ. eigenvalues --  -10.35493 -10.34302 -10.32927 -10.32923 -10.32668
 Alpha  occ. eigenvalues --  -10.32661 -10.30226 -10.30008 -10.30000 -10.29878
 Alpha  occ. eigenvalues --  -10.29872 -10.28631 -10.28627 -10.28483 -10.28479
 Alpha  occ. eigenvalues --   -6.92854  -1.28094  -1.24842  -1.09914  -1.08068
 Alpha  occ. eigenvalues --   -1.02961  -0.96494  -0.91523  -0.89265  -0.87864
 Alpha  occ. eigenvalues --   -0.85277  -0.83127  -0.82639  -0.76203  -0.71655
 Alpha  occ. eigenvalues --   -0.70425  -0.70283  -0.67369  -0.67131  -0.66823
 Alpha  occ. eigenvalues --   -0.63214  -0.62046  -0.60458  -0.60431  -0.59730
 Alpha  occ. eigenvalues --   -0.58231  -0.55630  -0.53930  -0.53215  -0.53080
 Alpha  occ. eigenvalues --   -0.52612  -0.52262  -0.51499  -0.51194  -0.50540
 Alpha  occ. eigenvalues --   -0.49702  -0.48902  -0.48332  -0.47482  -0.47370
 Alpha  occ. eigenvalues --   -0.46787  -0.46654  -0.46057  -0.44974  -0.43443
 Alpha  occ. eigenvalues --   -0.42632  -0.41598  -0.37407  -0.34814  -0.34264
 Alpha  occ. eigenvalues --   -0.33799  -0.28826  -0.27992
 Alpha virt. eigenvalues --   -0.04974   0.05129   0.06448   0.09252   0.10793
 Alpha virt. eigenvalues --    0.12524   0.12959   0.13169   0.14577   0.14960
 Alpha virt. eigenvalues --    0.15371   0.15878   0.16501   0.16756   0.17498
 Alpha virt. eigenvalues --    0.17709   0.18110   0.18542   0.19327   0.20721
 Alpha virt. eigenvalues --    0.20975   0.21106   0.22298   0.23187   0.24012
 Alpha virt. eigenvalues --    0.24111   0.24558   0.25322   0.26112   0.27037
 Alpha virt. eigenvalues --    0.27454   0.27561   0.27672   0.28952   0.29016
 Alpha virt. eigenvalues --    0.29887   0.30542   0.30725   0.30929   0.31977
 Alpha virt. eigenvalues --    0.32283   0.33613   0.34324   0.34586   0.34693
 Alpha virt. eigenvalues --    0.35369   0.36552   0.36740   0.37395   0.37777
 Alpha virt. eigenvalues --    0.38091   0.38383   0.38782   0.39246   0.39907
 Alpha virt. eigenvalues --    0.40073   0.40294   0.41045   0.41702   0.42318
 Alpha virt. eigenvalues --    0.42899   0.43091   0.43443   0.43745   0.44598
 Alpha virt. eigenvalues --    0.45064   0.45435   0.46038   0.46283   0.46688
 Alpha virt. eigenvalues --    0.46740   0.48312   0.48503   0.49002   0.49166
 Alpha virt. eigenvalues --    0.49892   0.49968   0.50627   0.51194   0.51869
 Alpha virt. eigenvalues --    0.52308   0.52745   0.53152   0.53665   0.53994
 Alpha virt. eigenvalues --    0.54163   0.55113   0.55537   0.56090   0.56166
 Alpha virt. eigenvalues --    0.56490   0.58248   0.58470   0.59369   0.59747
 Alpha virt. eigenvalues --    0.59993   0.60476   0.61619   0.62150   0.62411
 Alpha virt. eigenvalues --    0.63588   0.63775   0.64541   0.66144   0.67300
 Alpha virt. eigenvalues --    0.67465   0.68097   0.68456   0.69190   0.69610
 Alpha virt. eigenvalues --    0.70219   0.70955   0.71386   0.71542   0.73325
 Alpha virt. eigenvalues --    0.73577   0.73865   0.74480   0.75044   0.75192
 Alpha virt. eigenvalues --    0.77253   0.77476   0.77849   0.78620   0.78953
 Alpha virt. eigenvalues --    0.79570   0.79664   0.80035   0.80846   0.81242
 Alpha virt. eigenvalues --    0.82158   0.82352   0.82933   0.83065   0.84764
 Alpha virt. eigenvalues --    0.85113   0.85445   0.85724   0.87165   0.87916
 Alpha virt. eigenvalues --    0.88842   0.90000   0.90887   0.91387   0.91575
 Alpha virt. eigenvalues --    0.92633   0.93118   0.93702   0.94476   0.95210
 Alpha virt. eigenvalues --    0.95763   0.96448   0.97052   0.99570   1.01430
 Alpha virt. eigenvalues --    1.01659   1.02916   1.03423   1.04236   1.04552
 Alpha virt. eigenvalues --    1.04903   1.05233   1.06736   1.06982   1.07161
 Alpha virt. eigenvalues --    1.07536   1.09023   1.10938   1.11685   1.12298
 Alpha virt. eigenvalues --    1.13891   1.14000   1.15370   1.16091   1.16714
 Alpha virt. eigenvalues --    1.18133   1.18855   1.19685   1.20957   1.21706
 Alpha virt. eigenvalues --    1.22152   1.22843   1.23497   1.24763   1.25855
 Alpha virt. eigenvalues --    1.26797   1.27894   1.28738   1.29314   1.30129
 Alpha virt. eigenvalues --    1.30506   1.31655   1.32097   1.34799   1.34928
 Alpha virt. eigenvalues --    1.35184   1.36012   1.36556   1.37671   1.37942
 Alpha virt. eigenvalues --    1.38736   1.40665   1.41419   1.42214   1.43665
 Alpha virt. eigenvalues --    1.45048   1.45860   1.46536   1.46963   1.48165
 Alpha virt. eigenvalues --    1.48330   1.48741   1.48992   1.49980   1.52839
 Alpha virt. eigenvalues --    1.53299   1.54448   1.55447   1.56545   1.56848
 Alpha virt. eigenvalues --    1.57378   1.57734   1.57869   1.58740   1.59992
 Alpha virt. eigenvalues --    1.60448   1.61979   1.62021   1.63580   1.63868
 Alpha virt. eigenvalues --    1.64475   1.65095   1.65764   1.68258   1.68415
 Alpha virt. eigenvalues --    1.69337   1.69770   1.69842   1.70200   1.71697
 Alpha virt. eigenvalues --    1.72402   1.73196   1.73619   1.74070   1.74809
 Alpha virt. eigenvalues --    1.76244   1.77754   1.78256   1.78874   1.79717
 Alpha virt. eigenvalues --    1.80308   1.81149   1.83388   1.83654   1.84368
 Alpha virt. eigenvalues --    1.85352   1.86314   1.86579   1.88347   1.88406
 Alpha virt. eigenvalues --    1.89606   1.90252   1.90513   1.91864   1.92274
 Alpha virt. eigenvalues --    1.93768   1.94600   1.96163   1.96749   1.99049
 Alpha virt. eigenvalues --    1.99858   2.00622   2.01188   2.01556   2.02258
 Alpha virt. eigenvalues --    2.03987   2.04690   2.06253   2.08150   2.09116
 Alpha virt. eigenvalues --    2.10411   2.10849   2.11288   2.14690   2.15943
 Alpha virt. eigenvalues --    2.16453   2.17140   2.17828   2.18740   2.19696
 Alpha virt. eigenvalues --    2.21097   2.21573   2.21914   2.22195   2.24902
 Alpha virt. eigenvalues --    2.25328   2.25991   2.27692   2.28360   2.29263
 Alpha virt. eigenvalues --    2.29844   2.30778   2.31384   2.32164   2.33358
 Alpha virt. eigenvalues --    2.33554   2.35670   2.36171   2.36775   2.37434
 Alpha virt. eigenvalues --    2.38070   2.39027   2.41567   2.42110   2.44415
 Alpha virt. eigenvalues --    2.45466   2.45833   2.46834   2.47058   2.48405
 Alpha virt. eigenvalues --    2.49944   2.50507   2.53815   2.56189   2.57546
 Alpha virt. eigenvalues --    2.58115   2.58961   2.60124   2.60950   2.61266
 Alpha virt. eigenvalues --    2.61519   2.63273   2.64654   2.65020   2.66496
 Alpha virt. eigenvalues --    2.67100   2.67304   2.68157   2.68767   2.70199
 Alpha virt. eigenvalues --    2.70570   2.71165   2.71562   2.72956   2.73224
 Alpha virt. eigenvalues --    2.73651   2.75180   2.75680   2.76905   2.77396
 Alpha virt. eigenvalues --    2.77663   2.78059   2.78300   2.79720   2.79941
 Alpha virt. eigenvalues --    2.80770   2.82383   2.83126   2.83493   2.84201
 Alpha virt. eigenvalues --    2.85506   2.85542   2.86719   2.86890   2.87641
 Alpha virt. eigenvalues --    2.88712   2.89130   2.89899   2.91272   2.91290
 Alpha virt. eigenvalues --    2.93330   2.93602   2.94092   2.94569   2.95289
 Alpha virt. eigenvalues --    2.97067   2.97601   2.98685   2.99328   2.99592
 Alpha virt. eigenvalues --    3.00455   3.00507   3.02360   3.03097   3.04036
 Alpha virt. eigenvalues --    3.04319   3.05770   3.07202   3.07436   3.07727
 Alpha virt. eigenvalues --    3.08548   3.09520   3.09673   3.10656   3.10921
 Alpha virt. eigenvalues --    3.13299   3.13732   3.14275   3.15643   3.16638
 Alpha virt. eigenvalues --    3.17249   3.17900   3.18349   3.18666   3.18941
 Alpha virt. eigenvalues --    3.19929   3.20436   3.21058   3.21705   3.22389
 Alpha virt. eigenvalues --    3.22930   3.23872   3.24209   3.24856   3.27149
 Alpha virt. eigenvalues --    3.27902   3.28305   3.28787   3.29242   3.30297
 Alpha virt. eigenvalues --    3.30905   3.31427   3.31792   3.32415   3.34461
 Alpha virt. eigenvalues --    3.35142   3.35500   3.36401   3.37558   3.37709
 Alpha virt. eigenvalues --    3.38731   3.40128   3.40509   3.40643   3.41109
 Alpha virt. eigenvalues --    3.41960   3.42922   3.43949   3.44749   3.45442
 Alpha virt. eigenvalues --    3.47149   3.47445   3.47991   3.48761   3.49792
 Alpha virt. eigenvalues --    3.51324   3.51763   3.52033   3.53351   3.54174
 Alpha virt. eigenvalues --    3.54898   3.55600   3.55785   3.56102   3.58175
 Alpha virt. eigenvalues --    3.58445   3.59078   3.60124   3.61051   3.61265
 Alpha virt. eigenvalues --    3.61792   3.63386   3.63560   3.64123   3.65023
 Alpha virt. eigenvalues --    3.65779   3.66732   3.68843   3.69150   3.70099
 Alpha virt. eigenvalues --    3.71814   3.72475   3.72667   3.75195   3.77288
 Alpha virt. eigenvalues --    3.78614   3.79518   3.79900   3.81875   3.82568
 Alpha virt. eigenvalues --    3.83476   3.86448   3.89248   3.89761   3.89870
 Alpha virt. eigenvalues --    3.90597   3.90758   3.92734   3.93663   3.96145
 Alpha virt. eigenvalues --    3.97129   4.01332   4.02831   4.04337   4.05813
 Alpha virt. eigenvalues --    4.06673   4.08568   4.10241   4.12310   4.12400
 Alpha virt. eigenvalues --    4.13309   4.13982   4.15089   4.16127   4.16890
 Alpha virt. eigenvalues --    4.18316   4.19473   4.20970   4.22398   4.23589
 Alpha virt. eigenvalues --    4.24413   4.24835   4.26161   4.28186   4.30504
 Alpha virt. eigenvalues --    4.30687   4.31370   4.33005   4.33433   4.34303
 Alpha virt. eigenvalues --    4.35389   4.36516   4.37037   4.38122   4.39440
 Alpha virt. eigenvalues --    4.40296   4.40572   4.41616   4.43210   4.44405
 Alpha virt. eigenvalues --    4.48285   4.49145   4.49620   4.51288   4.55894
 Alpha virt. eigenvalues --    4.60829   4.61377   4.63052   4.63995   4.65237
 Alpha virt. eigenvalues --    4.68031   4.70514   4.71395   4.75489   4.76262
 Alpha virt. eigenvalues --    4.77157   4.80993   4.84387   4.84719   4.85038
 Alpha virt. eigenvalues --    4.85896   4.89333   4.90324   4.90602   4.91187
 Alpha virt. eigenvalues --    4.91946   4.92681   4.95631   4.97735   4.98669
 Alpha virt. eigenvalues --    4.99408   5.00698   5.03266   5.05396   5.07147
 Alpha virt. eigenvalues --    5.10244   5.10993   5.13210   5.15088   5.15805
 Alpha virt. eigenvalues --    5.20177   5.21652   5.24493   5.25290   5.26447
 Alpha virt. eigenvalues --    5.27855   5.29408   5.35188   5.36120   5.38387
 Alpha virt. eigenvalues --    5.39610   5.42482   5.43239   5.44969   5.47226
 Alpha virt. eigenvalues --    5.48119   5.52014   5.54102   5.58597   5.59783
 Alpha virt. eigenvalues --    5.61701   5.63685   5.70995   5.71485   5.72912
 Alpha virt. eigenvalues --    5.89316   5.91467   5.94686   5.98062   6.01213
 Alpha virt. eigenvalues --    6.05712   6.06647   6.08473   6.12825   6.33194
 Alpha virt. eigenvalues --    6.98445   6.98594   7.01244   7.01421   7.04690
 Alpha virt. eigenvalues --    7.04919   7.10896   7.18048   7.23031   7.28566
 Alpha virt. eigenvalues --    7.30972   7.33152   7.42076   7.42767   8.50234
 Alpha virt. eigenvalues --    8.52625   8.62983   8.64929   8.90791   8.94131
 Alpha virt. eigenvalues --    8.97190   8.99419   9.00589   9.08877  15.92077
 Alpha virt. eigenvalues --   22.40161  22.50158  22.52637  22.75523  22.77650
 Alpha virt. eigenvalues --   22.79457  22.84686  22.87538  22.88454  22.90021
 Alpha virt. eigenvalues --   23.03201  23.14782  23.30493  23.39026  23.66672
 Alpha virt. eigenvalues --   32.18088  33.02571  33.06389  57.14479  57.38450
          Condensed to atoms (all electrons):
               1          2          3          4          5          6
     1  C    5.649785  -0.043884   0.148623   0.408167  -0.040278  -0.193980
     2  C   -0.043884   5.651683   0.130920   0.023905   0.000254  -0.000852
     3  C    0.148623   0.130920   5.595841  -0.100254   0.011589  -0.010577
     4  C    0.408167   0.023905  -0.100254   5.171409   0.445816   0.006687
     5  C   -0.040278   0.000254   0.011589   0.445816   5.051467   0.459767
     6  C   -0.193980  -0.000852  -0.010577   0.006687   0.459767   5.036090
     7  H    0.008542   0.000002  -0.000351  -0.042501   0.443006  -0.040465
     8  C   -0.001842  -0.194644  -0.007997   0.000006   0.000065  -0.000726
     9  C    0.024285   0.407163  -0.096504  -0.000166   0.000010   0.000057
    10  C    0.000737  -0.042981   0.008876   0.000036  -0.000006   0.000059
    11  H    0.000005   0.008525  -0.000373  -0.000000   0.000000  -0.000000
    12  N    0.385401  -0.012950  -0.017880  -0.103266  -0.081988   0.451372
    13  N   -0.013162   0.382789  -0.016564   0.000163  -0.000419   0.001452
    14  B   -0.078660  -0.078917   0.003014   0.006933  -0.008620  -0.020646
    15  F   -0.007468  -0.007776   0.003709   0.000549  -0.000295  -0.002488
    16  F   -0.008138  -0.008213   0.003546   0.000232  -0.000427  -0.002087
    17  C   -0.274921  -0.269226   0.354870  -0.043401   0.001705  -0.003394
    18  C    0.013188   0.010412  -0.113440   0.000503  -0.000082   0.000179
    19  C    0.006224   0.018994  -0.116289   0.007941   0.000781   0.000047
    20  C   -0.002327  -0.000773  -0.001696  -0.000041  -0.000029   0.000001
    21  H    0.000435  -0.000166   0.001180   0.000098   0.000001  -0.000004
    22  C    0.001511  -0.004482  -0.001320   0.000676  -0.000024  -0.000012
    23  H   -0.000207   0.000529   0.000641  -0.003222   0.000311   0.000025
    24  C    0.000434   0.002797  -0.005854  -0.000137  -0.000007   0.000001
    25  H    0.000028   0.000036  -0.000174   0.000002  -0.000000   0.000000
    26  H    0.000142  -0.000019  -0.000222  -0.000065  -0.000008   0.000001
    27  H   -0.000971  -0.036821  -0.006872  -0.000019   0.000002  -0.000004
    28  H    0.000144   0.002868  -0.001230  -0.000004   0.000002  -0.000012
    29  H   -0.037268  -0.000956  -0.006963   0.431707  -0.028311   0.006556
    30  H    0.002928   0.000135  -0.001211   0.008798  -0.033365   0.421219
    31  N   -0.000034   0.000012   0.000048   0.000019   0.000000  -0.000000
    32  H   -0.000001   0.000002   0.000003   0.000001  -0.000000  -0.000000
    33  H   -0.000001   0.000002  -0.000000   0.000000   0.000000  -0.000000
               7          8          9         10         11         12
     1  C    0.008542  -0.001842   0.024285   0.000737   0.000005   0.385401
     2  C    0.000002  -0.194644   0.407163  -0.042981   0.008525  -0.012950
     3  C   -0.000351  -0.007997  -0.096504   0.008876  -0.000373  -0.017880
     4  C   -0.042501   0.000006  -0.000166   0.000036  -0.000000  -0.103266
     5  C    0.443006   0.000065   0.000010  -0.000006   0.000000  -0.081988
     6  C   -0.040465  -0.000726   0.000057   0.000059  -0.000000   0.451372
     7  H    0.454197  -0.000000  -0.000000   0.000000  -0.000000   0.003642
     8  C   -0.000000   5.034199   0.005383   0.460440  -0.040448   0.001596
     9  C   -0.000000   0.005383   5.171578   0.450883  -0.042427   0.000258
    10  C    0.000000   0.460440   0.450883   5.047829   0.442809  -0.000468
    11  H   -0.000000  -0.040448  -0.042427   0.442809   0.454190   0.000006
    12  N    0.003642   0.001596   0.000258  -0.000468   0.000006   6.208731
    13  N    0.000006   0.452016  -0.102758  -0.081742   0.003631  -0.033479
    14  B   -0.000050  -0.019917   0.006554  -0.008613  -0.000051   0.333404
    15  F    0.000003  -0.003203   0.000271  -0.000716   0.000003  -0.042095
    16  F    0.000002  -0.001437   0.000464  -0.000038   0.000002  -0.041161
    17  C    0.000007  -0.002730  -0.042106   0.000923  -0.000000   0.010652
    18  C    0.000002   0.000045   0.007379   0.000657   0.000005  -0.000485
    19  C    0.000005   0.000202   0.000269  -0.000130   0.000002  -0.000198
    20  C   -0.000000  -0.000027   0.001018   0.000023   0.000001   0.000021
    21  H    0.000000   0.000050  -0.003183   0.000261   0.000005  -0.000021
    22  C    0.000001  -0.000005   0.000135  -0.000009  -0.000000  -0.000012
    23  H    0.000006  -0.000003   0.000080  -0.000000   0.000000  -0.000145
    24  C    0.000000   0.000008  -0.000585  -0.000033   0.000000  -0.000001
    25  H   -0.000000   0.000000  -0.000003  -0.000004  -0.000000  -0.000000
    26  H   -0.000000   0.000000   0.000005   0.000000  -0.000000   0.000001
    27  H   -0.000000   0.006456   0.430707  -0.027807  -0.002398   0.000031
    28  H   -0.000000   0.421253   0.008869  -0.033392  -0.001536   0.000043
    29  H   -0.002416  -0.000003  -0.000014   0.000002  -0.000000   0.003516
    30  H   -0.001536  -0.000014  -0.000005   0.000002  -0.000000  -0.025759
    31  N    0.000000  -0.000000   0.000006   0.000000   0.000000  -0.000000
    32  H    0.000000   0.000000  -0.000000  -0.000000   0.000000  -0.000000
    33  H    0.000000   0.000000  -0.000001  -0.000000  -0.000000  -0.000000
              13         14         15         16         17         18
     1  C   -0.013162  -0.078660  -0.007468  -0.008138  -0.274921   0.013188
     2  C    0.382789  -0.078917  -0.007776  -0.008213  -0.269226   0.010412
     3  C   -0.016564   0.003014   0.003709   0.003546   0.354870  -0.113440
     4  C    0.000163   0.006933   0.000549   0.000232  -0.043401   0.000503
     5  C   -0.000419  -0.008620  -0.000295  -0.000427   0.001705  -0.000082
     6  C    0.001452  -0.020646  -0.002488  -0.002087  -0.003394   0.000179
     7  H    0.000006  -0.000050   0.000003   0.000002   0.000007   0.000002
     8  C    0.452016  -0.019917  -0.003203  -0.001437  -0.002730   0.000045
     9  C   -0.102758   0.006554   0.000271   0.000464  -0.042106   0.007379
    10  C   -0.081742  -0.008613  -0.000716  -0.000038   0.000923   0.000657
    11  H    0.003631  -0.000051   0.000003   0.000002  -0.000000   0.000005
    12  N   -0.033479   0.333404  -0.042095  -0.041161   0.010652  -0.000485
    13  N    6.210972   0.334719  -0.042289  -0.040385   0.010658  -0.000086
    14  B    0.334719   3.401464   0.376446   0.373983   0.012628  -0.000066
    15  F   -0.042289   0.376446   9.122611  -0.031941   0.000193  -0.000003
    16  F   -0.040385   0.373983  -0.031941   9.120438   0.000136   0.000004
    17  C    0.010658   0.012628   0.000193   0.000136   5.604638   0.372585
    18  C   -0.000086  -0.000066  -0.000003   0.000004   0.372585   5.178517
    19  C   -0.000558  -0.000258   0.000004  -0.000004   0.366819   0.014139
    20  C   -0.000010   0.000020   0.000000   0.000000  -0.008571   0.438990
    21  H   -0.000155  -0.000016  -0.000000  -0.000000  -0.063329   0.451260
    22  C    0.000019   0.000022   0.000000   0.000000  -0.006360  -0.051187
    23  H   -0.000021  -0.000021  -0.000000  -0.000000  -0.063806   0.009454
    24  C    0.000000   0.000000   0.000000   0.000000  -0.074184   0.022391
    25  H    0.000001   0.000001   0.000000   0.000000   0.009939  -0.037608
    26  H   -0.000000   0.000001   0.000000   0.000000   0.010279  -0.002604
    27  H    0.003468   0.000583   0.000007   0.000005   0.001863  -0.006398
    28  H   -0.025799  -0.001414   0.000254   0.000330  -0.000025   0.000001
    29  H    0.000033   0.000580   0.000004   0.000007   0.001890  -0.000546
    30  H    0.000056  -0.001554  -0.000239   0.000983  -0.000026  -0.000000
    31  N    0.000000   0.000000   0.000000   0.000000   0.003553  -0.003184
    32  H    0.000000   0.000000   0.000000   0.000000   0.000020  -0.000807
    33  H    0.000000   0.000000   0.000000   0.000000  -0.000007   0.001123
              19         20         21         22         23         24
     1  C    0.006224  -0.002327   0.000435   0.001511  -0.000207   0.000434
     2  C    0.018994  -0.000773  -0.000166  -0.004482   0.000529   0.002797
     3  C   -0.116289  -0.001696   0.001180  -0.001320   0.000641  -0.005854
     4  C    0.007941  -0.000041   0.000098   0.000676  -0.003222  -0.000137
     5  C    0.000781  -0.000029   0.000001  -0.000024   0.000311  -0.000007
     6  C    0.000047   0.000001  -0.000004  -0.000012   0.000025   0.000001
     7  H    0.000005  -0.000000   0.000000   0.000001   0.000006   0.000000
     8  C    0.000202  -0.000027   0.000050  -0.000005  -0.000003   0.000008
     9  C    0.000269   0.001018  -0.003183   0.000135   0.000080  -0.000585
    10  C   -0.000130   0.000023   0.000261  -0.000009  -0.000000  -0.000033
    11  H    0.000002   0.000001   0.000005  -0.000000   0.000000   0.000000
    12  N   -0.000198   0.000021  -0.000021  -0.000012  -0.000145  -0.000001
    13  N   -0.000558  -0.000010  -0.000155   0.000019  -0.000021   0.000000
    14  B   -0.000258   0.000020  -0.000016   0.000022  -0.000021   0.000000
    15  F    0.000004   0.000000  -0.000000   0.000000  -0.000000   0.000000
    16  F   -0.000004   0.000000  -0.000000   0.000000  -0.000000   0.000000
    17  C    0.366819  -0.008571  -0.063329  -0.006360  -0.063806  -0.074184
    18  C    0.014139   0.438990   0.451260  -0.051187   0.009454   0.022391
    19  C    5.191990  -0.053285   0.009158   0.430711   0.452967   0.029368
    20  C   -0.053285   5.130214  -0.042884   0.020811  -0.003380   0.397843
    21  H    0.009158  -0.042884   0.454464  -0.003200  -0.000044   0.009790
    22  C    0.430711   0.020811  -0.003200   5.138808  -0.043829   0.391355
    23  H    0.452967  -0.003380  -0.000044  -0.043829   0.455487   0.010173
    24  C    0.029368   0.397843   0.009790   0.391355   0.010173   4.741329
    25  H   -0.002714   0.440409  -0.006160   0.008181   0.000009  -0.053173
    26  H   -0.038345   0.008030   0.000011   0.441654  -0.006283  -0.054183
    27  H   -0.000365   0.001310  -0.003365   0.000158   0.000004  -0.000050
    28  H   -0.000000  -0.000000   0.000000   0.000000  -0.000000   0.000000
    29  H   -0.006963   0.000301   0.000001   0.001561  -0.003313  -0.000289
    30  H    0.000002   0.000000  -0.000000  -0.000000   0.000000  -0.000000
    31  N   -0.002689  -0.055821  -0.000136  -0.055877  -0.000125   0.370589
    32  H    0.001219   0.006018   0.000010  -0.007015  -0.000024  -0.026889
    33  H   -0.000675  -0.006716  -0.000024   0.005743   0.000011  -0.026987
              25         26         27         28         29         30
     1  C    0.000028   0.000142  -0.000971   0.000144  -0.037268   0.002928
     2  C    0.000036  -0.000019  -0.036821   0.002868  -0.000956   0.000135
     3  C   -0.000174  -0.000222  -0.006872  -0.001230  -0.006963  -0.001211
     4  C    0.000002  -0.000065  -0.000019  -0.000004   0.431707   0.008798
     5  C   -0.000000  -0.000008   0.000002   0.000002  -0.028311  -0.033365
     6  C    0.000000   0.000001  -0.000004  -0.000012   0.006556   0.421219
     7  H   -0.000000  -0.000000  -0.000000  -0.000000  -0.002416  -0.001536
     8  C    0.000000   0.000000   0.006456   0.421253  -0.000003  -0.000014
     9  C   -0.000003   0.000005   0.430707   0.008869  -0.000014  -0.000005
    10  C   -0.000004   0.000000  -0.027807  -0.033392   0.000002   0.000002
    11  H   -0.000000  -0.000000  -0.002398  -0.001536  -0.000000  -0.000000
    12  N   -0.000000   0.000001   0.000031   0.000043   0.003516  -0.025759
    13  N    0.000001  -0.000000   0.003468  -0.025799   0.000033   0.000056
    14  B    0.000001   0.000001   0.000583  -0.001414   0.000580  -0.001554
    15  F    0.000000   0.000000   0.000007   0.000254   0.000004  -0.000239
    16  F    0.000000   0.000000   0.000005   0.000330   0.000007   0.000983
    17  C    0.009939   0.010279   0.001863  -0.000025   0.001890  -0.000026
    18  C   -0.037608  -0.002604  -0.006398   0.000001  -0.000546  -0.000000
    19  C   -0.002714  -0.038345  -0.000365  -0.000000  -0.006963   0.000002
    20  C    0.440409   0.008030   0.001310  -0.000000   0.000301   0.000000
    21  H   -0.006160   0.000011  -0.003365   0.000000   0.000001  -0.000000
    22  C    0.008181   0.441654   0.000158   0.000000   0.001561  -0.000000
    23  H    0.000009  -0.006283   0.000004  -0.000000  -0.003313   0.000000
    24  C   -0.053173  -0.054183  -0.000050   0.000000  -0.000289  -0.000000
    25  H    0.472562  -0.000109   0.000096   0.000000   0.000002  -0.000000
    26  H   -0.000109   0.472668  -0.000000  -0.000000   0.000133   0.000000
    27  H    0.000096  -0.000000   0.432013  -0.000015  -0.000003  -0.000000
    28  H    0.000000  -0.000000  -0.000015   0.430986  -0.000000  -0.000001
    29  H    0.000002   0.000133  -0.000003  -0.000000   0.432877  -0.000018
    30  H   -0.000000   0.000000  -0.000000  -0.000001  -0.000018   0.431110
    31  N    0.000700   0.000844  -0.000010  -0.000000  -0.000018  -0.000000
    32  H   -0.000115   0.002354   0.000000   0.000000  -0.000001  -0.000000
    33  H    0.002397  -0.000122   0.000001  -0.000000  -0.000000   0.000000
              31         32         33
     1  C   -0.000034  -0.000001  -0.000001
     2  C    0.000012   0.000002   0.000002
     3  C    0.000048   0.000003  -0.000000
     4  C    0.000019   0.000001   0.000000
     5  C    0.000000  -0.000000   0.000000
     6  C   -0.000000  -0.000000  -0.000000
     7  H    0.000000   0.000000   0.000000
     8  C   -0.000000   0.000000   0.000000
     9  C    0.000006  -0.000000  -0.000001
    10  C    0.000000  -0.000000  -0.000000
    11  H    0.000000   0.000000  -0.000000
    12  N   -0.000000  -0.000000  -0.000000
    13  N    0.000000   0.000000   0.000000
    14  B    0.000000   0.000000   0.000000
    15  F    0.000000   0.000000   0.000000
    16  F    0.000000   0.000000   0.000000
    17  C    0.003553   0.000020  -0.000007
    18  C   -0.003184  -0.000807   0.001123
    19  C   -0.002689   0.001219  -0.000675
    20  C   -0.055821   0.006018  -0.006716
    21  H   -0.000136   0.000010  -0.000024
    22  C   -0.055877  -0.007015   0.005743
    23  H   -0.000125  -0.000024   0.000011
    24  C    0.370589  -0.026889  -0.026987
    25  H    0.000700  -0.000115   0.002397
    26  H    0.000844   0.002354  -0.000122
    27  H   -0.000010   0.000000   0.000001
    28  H   -0.000000   0.000000  -0.000000
    29  H   -0.000018  -0.000001  -0.000000
    30  H   -0.000000  -0.000000   0.000000
    31  N    6.503468   0.373782   0.374162
    32  H    0.373782   0.371752  -0.022423
    33  H    0.374162  -0.022423   0.371545
 Mulliken charges:
               1
     1  C    0.052564
     2  C    0.061632
     3  C    0.242914
     4  C   -0.220573
     5  C   -0.220916
     6  C   -0.108266
     7  H    0.177900
     8  C   -0.108721
     9  C   -0.227620
    10  C   -0.217598
    11  H    0.178050
    12  N   -0.038767
    13  N   -0.042557
    14  B    0.368451
    15  F   -0.365539
    16  F   -0.366298
    17  C    0.088727
    18  C   -0.304334
    19  C   -0.308368
    20  C   -0.269451
    21  H    0.195965
    22  C   -0.268015
    23  H    0.194724
    24  C    0.266292
    25  H    0.165696
    26  H    0.165836
    27  H    0.208394
    28  H    0.198677
    29  H    0.207912
    30  H    0.198494
    31  N   -0.509291
    32  H    0.302114
    33  H    0.301972
 Sum of Mulliken charges =  -0.00000
 Mulliken charges with hydrogens summed into heavy atoms:
               1
     1  C    0.052564
     2  C    0.061632
     3  C    0.242914
     4  C   -0.012661
     5  C   -0.043016
     6  C    0.090228
     8  C    0.089956
     9  C   -0.019227
    10  C   -0.039548
    12  N   -0.038767
    13  N   -0.042557
    14  B    0.368451
    15  F   -0.365539
    16  F   -0.366298
    17  C    0.088727
    18  C   -0.108368
    19  C   -0.113644
    20  C   -0.103754
    22  C   -0.102179
    24  C    0.266292
    31  N    0.094794
 Electronic spatial extent (au):  <R**2>=           6181.5048
 Charge=             -0.0000 electrons
 Dipole moment (field-independent basis, Debye):
    X=            -12.0976    Y=             -0.4786    Z=             -0.6597  Tot=             12.1251
 Quadrupole moment (field-independent basis, Debye-Ang):
   XX=            -95.0575   YY=            -99.3089   ZZ=           -125.0578
   XY=              3.2582   XZ=              2.5990   YZ=             -4.3566
 Traceless Quadrupole moment (field-independent basis, Debye-Ang):
   XX=             11.4172   YY=              7.1658   ZZ=            -18.5830
   XY=              3.2582   XZ=              2.5990   YZ=             -4.3566
 Octapole moment (field-independent basis, Debye-Ang**2):
  XXX=           -337.1230  YYY=             -0.5490  ZZZ=             -0.5685  XYY=             35.1985
  XXY=            -20.1415  XXZ=            -20.7500  XZZ=            -19.8447  YZZ=             -0.2910
  YYZ=             -0.7281  XYZ=             27.0045
 Hexadecapole moment (field-independent basis, Debye-Ang**3):
 XXXX=          -3893.6695 YYYY=          -1901.0042 ZZZZ=           -366.0895 XXXY=            131.1274
 XXXZ=            123.9540 YYYX=              5.5975 YYYZ=             28.3864 ZZZX=              4.3610
 ZZZY=            -26.0563 XXYY=          -1108.5677 XXZZ=          -1004.1633 YYZZ=           -457.9887
 XXYZ=           -106.8309 YYXZ=             -0.9774 ZZXY=              0.3159
 N-N= 1.589672572978D+03 E-N=-5.442498630370D+03  KE= 9.630368373766D+02
   1 Symmetry operations used in ECPInt.
 ECPInt:  NShTT=   39060 NPrTT=  121776 LenC2=   34375 LenP2D=   76749.
 LDataN:  DoStor=T MaxTD1= 7 Len=  274
 D1PCM: PCM CHGder 1st derivatives, ID1Alg=3 FixD1E=F DoIter=F DoCFld=F I1PDM=0.
 Calling FoFJK, ICntrl=      2127 FMM=F ISym2X=0 I1Cent= 0 IOpClX= 0 NMat=1 NMatS=1 NMatT=0.
 ***** Axes restored to original set *****
 -------------------------------------------------------------------
 Center     Atomic                   Forces (Hartrees/Bohr)
 Number     Number              X              Y              Z
 -------------------------------------------------------------------
      1        6          -0.003040250   -0.000327741   -0.000542924
      2        6          -0.003046225    0.000342401    0.000482396
      3        6           0.003292833    0.000000753   -0.000037898
      4        6           0.001385794    0.000663168    0.000005788
      5        6          -0.000131170    0.001257991   -0.000023333
      6        6          -0.000289769   -0.002011033   -0.000165136
      7        1          -0.000099295    0.006927795    0.000783637
      8        6          -0.000293117    0.002024088    0.000323467
      9        6           0.001382968   -0.000658869    0.000008671
     10        6          -0.000137054   -0.001249005   -0.000040553
     11        1          -0.000120846   -0.006939915   -0.000642022
     12        7          -0.000642697   -0.003008187   -0.000328320
     13        7          -0.000628759    0.003011467    0.000334452
     14        5          -0.005213889    0.000020968   -0.000385935
     15        9           0.001522019   -0.000145052    0.000842312
     16        9           0.001538054    0.000119596   -0.000723405
     17        6          -0.004062233   -0.000005642    0.000022799
     18        6          -0.000491707   -0.000926664    0.000595948
     19        6          -0.000492734    0.000924032   -0.000600374
     20        6          -0.000076398   -0.000753257    0.000715007
     21        1          -0.003012925   -0.003819782    0.004227762
     22        6          -0.000090864    0.000872483   -0.000608254
     23        1          -0.003055392    0.003843496   -0.004179491
     24        6           0.009280071   -0.000480618   -0.000504977
     25        1           0.003053290   -0.003675719    0.003903794
     26        1           0.003019620    0.003680513   -0.003924484
     27        1           0.006666135   -0.002129045   -0.000642958
     28        1          -0.006652068   -0.001803721   -0.000044463
     29        1           0.006686506    0.002080358    0.000668756
     30        1          -0.006652003    0.001817727    0.000139443
     31        7          -0.006186065   -0.000645491   -0.000603071
     32        1           0.003278960    0.004108137   -0.003169664
     33        1           0.003309213   -0.003115231    0.004113032
 -------------------------------------------------------------------
 Cartesian Forces:  Max     0.009280071 RMS     0.002792181

 GradGradGradGradGradGradGradGradGradGradGradGradGradGradGradGradGradGrad
 Berny optimization.
 FormGI is forming the generalized inverse of G from B-inverse, IUseBI=4.
 Internal  Forces:  Max     0.008114888 RMS     0.002719666
 Search for a local minimum.
 Step number   1 out of a maximum of  198
 All quantities printed in internal units (Hartrees-Bohrs-Radians)
 Mixed Optimization -- RFO/linear search
 Second derivative matrix not updated -- first step.
 ITU=  0
     Eigenvalues ---    0.00545   0.01176   0.01219   0.01333   0.01625
     Eigenvalues ---    0.01730   0.01742   0.01916   0.01936   0.01972
     Eigenvalues ---    0.01975   0.02004   0.02034   0.02037   0.02062
     Eigenvalues ---    0.02071   0.02126   0.02128   0.02128   0.02128
     Eigenvalues ---    0.02176   0.02178   0.02182   0.02185   0.02233
     Eigenvalues ---    0.02282   0.02283   0.02930   0.07109   0.10271
     Eigenvalues ---    0.13626   0.15023   0.15983   0.15987   0.15993
     Eigenvalues ---    0.15995   0.15997   0.15997   0.15998   0.15998
     Eigenvalues ---    0.16000   0.16000   0.16000   0.16000   0.22001
     Eigenvalues ---    0.22272   0.22290   0.22943   0.23998   0.24078
     Eigenvalues ---    0.24125   0.24740   0.24847   0.24969   0.24991
     Eigenvalues ---    0.25000   0.25000   0.27605   0.27660   0.34481
     Eigenvalues ---    0.34483   0.34563   0.34563   0.34831   0.34835
     Eigenvalues ---    0.35029   0.35029   0.35056   0.35061   0.36250
     Eigenvalues ---    0.38264   0.39604   0.40449   0.40547   0.41354
     Eigenvalues ---    0.41749   0.42203   0.43288   0.43884   0.43894
     Eigenvalues ---    0.44838   0.44954   0.45577   0.45582   0.46066
     Eigenvalues ---    0.46111   0.46265   0.46402   0.47213   0.48403
     Eigenvalues ---    0.53128   0.54859   0.54884
 RFO step:  Lambda=-3.39952319D-03 EMin= 5.45245313D-03
 Linear search not attempted -- first point.
 Iteration  1 RMS(Cart)=  0.01706129 RMS(Int)=  0.00002365
 Iteration  2 RMS(Cart)=  0.00002757 RMS(Int)=  0.00001317
 Iteration  3 RMS(Cart)=  0.00000000 RMS(Int)=  0.00001317
 Variable       Old X    -DE/DX   Delta X   Delta X   Delta X     New X
                                 (Linear)    (Quad)   (Total)
    R1        2.66884  -0.00699   0.00000  -0.01632  -0.01632   2.65252
    R2        2.67219  -0.00706   0.00000  -0.01619  -0.01619   2.65600
    R3        2.62242  -0.00362   0.00000  -0.00724  -0.00724   2.61517
    R4        2.66868  -0.00701   0.00000  -0.01637  -0.01636   2.65232
    R5        2.67228  -0.00707   0.00000  -0.01620  -0.01620   2.65608
    R6        2.62282  -0.00363   0.00000  -0.00724  -0.00724   2.61558
    R7        2.76993  -0.00447   0.00000  -0.01222  -0.01222   2.75771
    R8        2.63089  -0.00644   0.00000  -0.01396  -0.01395   2.61693
    R9        2.05585  -0.00703   0.00000  -0.01987  -0.01987   2.03597
   R10        2.65010  -0.00675   0.00000  -0.01497  -0.01497   2.63512
   R11        2.05627  -0.00697   0.00000  -0.01971  -0.01971   2.03656
   R12        2.53182  -0.00469   0.00000  -0.00796  -0.00797   2.52385
   R13        2.05944  -0.00689   0.00000  -0.01960  -0.01960   2.03984
   R14        2.65005  -0.00674   0.00000  -0.01496  -0.01496   2.63508
[...]
 0.00000218,0.,-0.00000152,-0.00000305,0.00000308,0.00000314,-0.0002978
 8,-0.00059578,-0.00003258,0.35517815,0.00002813,0.00015287,-0.00000286
 ,0.00099720,-0.00535436,-0.00114470,-0.00169704,0.00034610,-0.00016979
 ,0.00001698,0.00003308,0.00001135,0.00003913,-0.00003961,-0.00000181,-
 0.00000950,-0.00002335,-0.00000096,0.00000289,-0.00000330,-0.00000069,
 -0.05748125,-0.07689205,-0.00304170,0.00404290,-0.00257109,-0.00089076
 ,0.01501079,0.01237899,0.00066661,-0.00105847,0.00012060,0.00027484,-0
 .00001204,0.00004703,-0.00001603,-0.03379080,-0.00289356,0.00017118,-0
 .00102615,-0.00000525,0.00013919,0.00025329,-0.00004220,0.00013328,0.0
 0015162,0.00001342,-0.00008843,0.00005585,-0.00041349,0.00018344,0.000
 03018,0.00003547,0.00004715,-0.00014024,0.00000078,-0.00004445,-0.0000
 3141,-0.00000095,0.00000034,0.00000807,0.00000641,-0.00001533,-0.00000
 686,-0.00001133,0.00003832,0.00000563,-0.00000429,-0.00000421,0.000025
 95,-0.00000066,-0.00001517,-0.00000515,0.,-0.00000158,-0.00001457,0.00
 000338,0.00000355,0.00067607,0.00103766,0.00000936,0.07395328,0.074085
 14,-0.00020037,0.00038362,0.00028246,0.00031550,-0.00078595,0.00605358
 ,0.00033118,-0.00038868,0.00189399,0.00006934,-0.00023836,-0.00007437,
 -0.00024144,0.00001635,-0.00005856,0.00001352,0.00026524,-0.00007261,-
 0.00000277,0.00000313,0.00001342,-0.00179733,-0.00237786,-0.03706464,0
 .00035160,-0.00099339,0.00432913,0.00233514,0.00069816,0.00478486,-0.0
 0018901,0.00026199,-0.00231103,0.00015192,-0.00015331,0.00024405,-0.00
 359769,-0.00046353,0.00054400,0.00009959,0.00008413,-0.00187947,-0.000
 41502,0.00004276,-0.00018722,0.00045780,-0.00010982,-0.00020689,-0.000
 62309,-0.00003054,-0.00122485,0.00005660,-0.00027859,0.00006044,0.0004
 4156,0.00007653,-0.00009673,-0.00006802,0.00001117,0.00009751,-0.00000
 859,0.00002013,-0.00003432,-0.00023909,0.00022215,-0.00013468,-0.00000
 851,-0.00002270,-0.00002216,0.00024374,-0.00009357,0.00007211,-0.00000
 836,0.00001030,0.00000168,0.00001396,-0.00000911,0.00000145,0.00014547
 ,0.00007046,0.00021751,0.00262177,0.00376172,0.02473355,-0.00036205,0.
 00176155,0.00034877,-0.00007820,-0.00043054,-0.00007531,-0.00077944,0.
 00038606,0.00013108,-0.33466952,-0.08449833,-0.02388578,-0.00956351,-0
 .00995631,-0.00135790,-0.00297342,0.00165163,-0.00003478,0.00075238,0.
 00009922,0.00013490,0.00001797,-0.00018674,-0.00002349,0.00002294,0.00
 018305,0.00002846,-0.00018281,-0.00004087,-0.00001242,-0.00000314,-0.0
 0000702,0.00000111,0.00025839,0.00053019,-0.00019210,0.00013884,0.0000
 3095,0.00000884,0.00023919,0.00026864,-0.00006407,-0.00006976,-0.00006
 509,-0.00007178,-0.00003276,-0.00002947,0.00005373,0.00020843,0.000696
 72,0.00011936,0.00022657,-0.00020941,0.00010580,-0.00076232,0.00094116
 ,0.00130022,-0.00017838,-0.00002425,-0.00000927,0.00000547,0.00000327,
 0.00000246,0.00005758,0.00006223,0.00004178,-0.00059741,0.00082425,0.0
 0020199,-0.00005698,0.00003983,-0.00017513,0.,0.00000599,0.00000927,0.
 00000778,0.00001979,0.00001944,0.00000668,-0.00000376,0.00000556,-0.00
 000052,-0.00000179,0.00000538,0.34863577,-0.02442007,0.00295642,-0.000
 84514,-0.00004893,0.00022692,0.00012796,0.00030554,0.00021982,0.000261
 79,-0.08292607,-0.08416282,-0.00925186,0.01700882,0.01242783,0.0015189
 1,0.00428419,-0.00300240,-0.00082090,-0.00134471,0.00029280,0.00040010
 ,0.00003221,0.00018650,0.00002134,-0.00000101,-0.00016137,-0.00001494,
 0.00015834,-0.00003871,-0.00001187,0.00000690,-0.00000010,-0.00000234,
 -0.00310046,-0.00570441,-0.00079227,0.00001243,-0.00017142,0.00000599,
 0.00018716,0.00151705,-0.00017902,-0.00037910,-0.00033410,-0.00033043,
 -0.00024369,-0.00022069,0.00026589,-0.00001923,-0.00035749,-0.00013894
 ,0.00031140,-0.00005594,0.00017146,0.00070516,-0.00065048,-0.00062102,
 -0.00028828,-0.00004188,0.00002790,-0.00000279,0.00001824,-0.00002449,
 0.00022269,0.00006126,0.00007721,0.00033216,-0.00034754,-0.00057636,0.
 00021495,0.00012340,-0.00019228,-0.00001352,0.00000096,-0.00000772,-0.
 00003098,-0.00000032,0.00001996,0.00000376,-0.00001349,-0.00000399,-0.
 00000103,0.00000041,-0.00000558,0.08863326,0.07619107,-0.00237607,0.00
 113141,0.00053688,0.00025348,0.00072491,-0.00007624,-0.00038272,-0.000
 47398,-0.00230257,-0.02393257,-0.00895880,-0.03601777,0.00181840,0.000
 12559,0.00416339,-0.00008959,-0.00100532,0.00534451,-0.00000454,0.0004
 0321,-0.00340591,0.00000692,0.00036479,0.00003184,-0.00006430,-0.00042
 029,0.00009880,0.00035537,-0.00000039,-0.00009013,0.00000377,0.0000103
 0,-0.00001123,-0.00034870,-0.00072499,0.00340113,-0.00019742,-0.000195
 22,-0.00012441,-0.00011488,0.00022189,0.00152057,0.00048467,0.00039055
 ,0.00016833,-0.00047113,-0.00050857,0.00019258,0.00103277,-0.00073135,
 0.00028061,-0.00043156,0.00056709,-0.00017358,0.00026652,-0.00125915,-
 0.00039337,0.00043279,0.00015887,-0.00022241,-0.00001725,-0.00000401,-
 0.00000207,-0.00019206,0.00003008,-0.00009255,0.00039966,-0.00041627,-
 0.00054302,-0.00018608,-0.00029128,0.00037269,0.00001348,-0.00003508,-
 0.00003941,-0.00000822,0.00000583,-0.00001072,-0.00000544,-0.00000378,
 0.00003942,-0.00000261,-0.00000443,0.00003331,0.02352652,0.01083257,0.
 02715073,0.00151603,-0.00024572,-0.00000594,-0.00005581,-0.00017255,-0
 .00003585,-0.00010826,0.00034385,0.00001508,-0.00254150,-0.00210818,-0
 .00032908,-0.00736083,0.00906151,0.00085411,-0.34409553,0.06719058,0.0
 0372942,0.00034187,-0.00023327,0.00000047,-0.00002590,-0.00008450,-0.0
 0000552,0.00003802,0.00011238,0.00000712,-0.00008990,0.00004196,0.0000
 0604,-0.00000171,0.00000145,0.00000146,-0.00171442,0.00067950,0.000004
 43,0.00010735,0.00019670,-0.00000106,-0.00098778,-0.00015999,0.0000997
 7,0.00028484,-0.00011726,0.00016311,0.00030854,-0.00034479,-0.00018711
 ,0.00003711,0.00009205,-0.00001268,0.00000631,0.00001001,0.00004373,-0
 .00002084,0.00000273,0.00000235,-0.00002973,-0.00000571,-0.00000330,0.
 00000206,-0.00000022,-0.00000164,0.00002922,0.00000213,0.00001378,0.00
 000045,-0.00000493,-0.00002270,0.00001163,0.00002136,-0.00002187,-0.00
 000314,-0.00000305,-0.00000310,-0.00000212,0.00000007,0.00000158,-0.00
 000054,0.00000098,0.00000279,0.00000390,0.00000420,0.00000051,-0.00029
 935,0.00060013,0.00003784,0.35466226,-0.00102772,-0.00534541,-0.001159
 38,-0.00002745,0.00015295,-0.00000306,0.00169818,0.00033968,-0.0001854
 2,-0.00404475,-0.00254632,-0.00088402,-0.01493819,0.01239506,0.0007501
 0,0.05837560,-0.07729938,-0.00342370,0.00105875,0.00011651,0.00027461,
 0.00000946,-0.00002382,-0.00000078,-0.00001682,0.00003329,0.00001152,-
 0.00003952,-0.00003955,-0.00000136,-0.00000291,-0.00000329,-0.00000075
 ,0.03378158,-0.00301366,-0.00000085,0.00001128,0.00004655,-0.00001537,
 0.00102770,-0.00001218,0.00013471,-0.00015771,0.00001985,-0.00008326,-
 0.00025308,-0.00004931,0.00013313,-0.00005743,-0.00041329,0.00018717,0
 .00014111,-0.00000031,-0.00004566,-0.00003024,0.00003644,0.00004812,0.
 00000669,-0.00001153,0.00003889,-0.00000565,-0.00000417,-0.00000398,0.
 00003118,-0.00000052,0.00000023,-0.00000770,0.00000597,-0.00001532,-0.
 00002599,0.00000231,-0.00001275,0.00001462,0.00000319,0.00000337,0.000
 00515,-0.00000021,-0.00000172,0.00000178,0.00000045,-0.00000456,-0.000
 00424,-0.00000871,0.00000073,-0.00067200,0.00103724,0.00001636,-0.0748
 7864,0.07458280,-0.00028655,-0.00082160,0.00604240,0.00019971,0.000379
 81,0.00028027,-0.00031381,-0.00038116,0.00189879,-0.00033449,-0.000987
 62,0.00432824,-0.00228331,0.00068448,0.00478693,0.00337523,-0.00283379
 ,-0.03708602,0.00017915,0.00026848,-0.00231242,-0.00001214,0.00026320,
 -0.00007334,-0.00007068,-0.00023618,-0.00007371,0.00023889,0.00001439,
 -0.00006001,0.00000279,0.00000315,0.00001353,0.00366146,-0.00046995,0.
 00052314,-0.00014559,-0.00015012,0.00024568,-0.00009532,0.00009563,-0.
 00188081,-0.00046430,-0.00010784,-0.00021159,0.00040965,0.00004373,-0.
 00018194,0.00061130,-0.00003532,-0.00122813,-0.00043991,0.00007866,-0.
 00009247,-0.00005661,-0.00027644,0.00006238,0.00023780,0.00022369,-0.0
 0013256,0.00000782,-0.00002364,-0.00002263,0.00006864,0.00001250,0.000
 09778,0.00000795,0.00002048,-0.00003486,-0.00024296,-0.00005952,0.0001
 0529,-0.00001381,-0.00000881,0.00000196,0.00000860,0.00001033,0.000001
 41,-0.00000516,-0.00000549,0.00003351,-0.00000054,0.00000052,0.0000014
 8,-0.00014272,0.00007030,0.00022179,-0.00435490,0.00424419,0.02478130,
 -0.00328645,0.00534414,-0.00171278,-0.00330044,-0.00536590,0.00173893,
 0.01810949,0.00001283,-0.00004547,0.00071604,-0.00391019,-0.00013962,-
 0.00344570,0.00020388,-0.00041596,-0.00024220,0.00312807,0.00031466,-0
 .00006912,0.00014013,0.00003598,-0.00025349,-0.00314420,-0.00030689,0.
 00073399,0.00392670,0.00013636,-0.00346111,-0.00019190,0.00043153,-0.0
 0007067,-0.00014061,-0.00003487,0.00143528,-0.00074739,-0.00095546,0.0
 0146001,0.00074893,0.00093990,0.00216810,-0.00000186,0.00000889,-0.000
 69628,0.00001953,-0.00048861,-0.00069861,-0.00001848,0.00048155,-0.023
 75239,-0.00010746,0.00001017,0.01506359,-0.00528429,0.00075902,0.01515
 310,0.00507306,-0.00111453,-0.05072697,-0.01468713,0.01738143,-0.00051
 964,-0.00023806,0.00023737,-0.05081100,0.01667847,-0.01541502,-0.00052
 022,0.00035944,-0.00011840,-0.31884896,0.01008424,0.01012427,0.0022836
 4,0.00142555,-0.00051654,0.00221644,-0.00124720,0.00074439,0.00003582,
 0.00020523,-0.00019735,-0.00001298,-0.00002769,-0.00026577,0.00003799,
 -0.00020552,0.00020029,-0.00001210,0.00002709,0.00026630,0.69140072,0.
 00067522,-0.00120877,0.00035992,0.00054675,0.00076933,-0.00035254,-0.0
 0337658,0.00002190,-0.00062935,-0.00009556,0.00084554,0.00003891,0.000
 67284,-0.00001453,0.00002661,0.00008845,-0.00063384,-0.00007245,0.0000
 1139,-0.00002888,-0.00000744,-0.00000079,0.00055437,0.00005160,-0.0001
 9039,-0.00059682,-0.00001943,0.00061838,0.00006453,-0.00013936,0.00001
 461,0.00002268,0.00000603,-0.00029261,0.00018236,0.00023488,-0.0002636
 5,-0.00011521,-0.00013700,-0.00039928,-0.00009322,-0.00000943,0.000129
 16,0.00001516,0.00009248,0.00012754,0.00002209,-0.00008563,0.00457422,
 0.00328226,-0.00437233,0.00115646,-0.00124133,0.00853881,-0.00729542,-
 0.00307550,0.00693027,-0.03039200,0.01031908,0.00104518,-0.00119581,-0
 .00004856,-0.00020098,0.03736900,0.00227460,0.00608795,0.00093895,-0.0
 0012715,-0.00008452,-0.02278286,-0.08464822,0.04287641,-0.00044238,-0.
 00126674,-0.00233235,0.00077640,-0.00038568,-0.00158420,0.00000576,-0.
 00004278,0.00010049,0.00000448,0.00000648,0.00005581,-0.00002156,0.000
 02682,0.00001534,-0.00000024,-0.00000376,-0.00004867,0.10034395,0.4440
 0611,0.00068940,-0.00108832,0.00025113,0.00054398,0.00101546,-0.000389
 19,-0.00346774,-0.00055009,0.00033203,-0.00013494,0.00075886,-0.000012
 84,0.00068048,-0.00003730,0.00014034,0.00004570,-0.00063197,-0.0000567
 4,0.00001136,-0.00002562,-0.00001119,0.00004210,0.00057444,0.00006425,
 -0.00013300,-0.00073308,-0.00006799,0.00062867,0.00003262,-0.00001924,
 0.00001347,0.00002618,0.00000206,-0.00029977,0.00016848,0.00020648,-0.
 00028785,-0.00015101,-0.00016044,-0.00039588,-0.00002082,-0.00002754,0
 .00012939,0.00000005,0.00009958,0.00012460,0.00000694,-0.00007727,0.00
 455521,-0.00442308,0.00330621,-0.00774887,0.00759638,-0.00310308,0.001
 76321,0.00750374,-0.00294483,0.03903981,0.00594214,0.00154095,0.001034
 67,-0.00001698,-0.00004504,-0.03221960,0.00160394,0.01019293,-0.001289
 19,-0.00016555,0.00000815,-0.02131173,0.04276271,-0.08901656,0.0008907
 7,-0.00170599,-0.00023696,-0.00053027,-0.00230343,-0.00067735,-0.00001
 408,-0.00002385,-0.00001030,0.00000005,0.00000452,0.00003391,-0.000008
 47,0.00003914,-0.00008807,0.00000252,-0.00000328,-0.00006749,0.0966990
 9,-0.36868928,0.47742169,0.00007281,-0.00016814,0.00004458,0.00008146,
 0.00012145,-0.00004770,-0.00044122,0.00003746,-0.00008244,-0.00001219,
 0.00009982,-0.00000230,0.00008510,0.00000080,0.00000471,0.00001021,-0.
 00008472,-0.00000973,0.00000074,-0.00000315,-0.00000057,-0.00000058,0.
 00007850,0.00000843,-0.00002375,-0.00007984,-0.00000705,0.00008218,0.0
 0000614,-0.00001458,0.00000100,0.00000248,0.00000063,-0.00004201,0.000
 03710,0.00002829,-0.00004165,-0.00002399,-0.00001342,-0.00005177,-0.00
 001185,-0.00000007,0.00001697,0.00000191,0.00001112,0.00001707,0.00000
 286,-0.00001124,0.00076587,0.00015387,-0.00025916,-0.00041627,-0.00077
 488,0.00140474,-0.00048854,0.00008823,0.00050523,-0.00433743,0.0018063
 3,-0.00241937,-0.00040621,0.00003697,-0.00004729,0.00245224,-0.0005613
 6,0.00175338,0.00008878,-0.00003856,-0.00003046,-0.01841293,-0.0302777
 3,0.01736429,0.00012463,-0.00007123,-0.00003726,-0.00027411,0.00059343
 ,-0.00105440,-0.00000161,-0.00000148,0.00001160,0.00000004,0.00000059,
 0.00000563,-0.00000257,0.00000403,0.00000327,-0.00000014,0.00000046,-0
 .00000575,-0.14445468,-0.14090122,0.06561453,0.15442418,0.00002591,-0.
 00001389,0.00002039,-0.00004097,-0.00005206,-0.00001411,-0.00000579,-0
 .00006606,-0.00009117,-0.00000437,0.00001484,0.00000472,0.00001610,-0.
 00000391,-0.00000177,0.00000017,-0.00001562,-0.00000385,0.00000141,-0.
 00000026,0.00000053,-0.00001054,-0.00000790,-0.00000070,-0.00001514,0.
 00003480,-0.00000874,-0.00000870,0.00000153,-0.00000626,-0.00000076,-0
 .00000131,0.00000051,-0.00001463,-0.00000161,0.00000406,0.00001403,-0.
 00001124,0.00001325,0.00000150,0.00000214,0.00000456,-0.00000063,-0.00
 000094,-0.00000208,0.,-0.00000062,-0.00000112,0.00000496,0.00041937,-0
 .00040946,0.00074985,0.00094666,0.00064417,-0.00052414,-0.00029431,0.0
 0034198,0.00106924,0.00122627,0.00110159,0.00012084,-0.00012083,-0.000
 13245,0.00162328,0.00082708,-0.00141849,0.00003078,0.00000473,0.000014
 48,0.00732904,0.00306285,-0.00692647,0.00006151,-0.00024957,-0.0003487
 0,-0.00057073,-0.00038905,-0.00012104,0.00000243,-0.00000387,0.0000096
 7,0.00000067,-0.00000020,-0.00000091,0.00000325,-0.00000026,0.00000116
 ,-0.00000045,-0.00000051,-0.00000051,-0.15887685,-0.28306086,0.1728679
 5,0.15440343,0.28598442,-0.00040293,0.00068058,-0.00019363,-0.00042455
 ,-0.00076541,0.00018665,0.00230352,0.00007198,0.00002023,0.00008241,-0
 .00047761,-0.00001538,-0.00041628,0.00001981,-0.00005392,-0.00003141,0
 .00038334,0.00003742,-0.00000730,0.00001644,0.00000618,-0.00004111,-0.
 00040885,-0.00003905,0.00007156,0.00052387,0.00001050,-0.00043910,-0.0
 0001695,0.00004271,-0.00000870,-0.00001811,-0.00000314,0.00018068,-0.0
 0010208,-0.00012172,0.00021129,0.00010988,0.00011340,0.00026427,-0.000
 00218,0.00001308,-0.00008574,0.00000276,-0.00006431,-0.00008398,-0.000
 00192,0.00005409,-0.00281768,0.00014696,-0.00013605,0.00195153,0.00029
 716,0.00084069,0.00151941,-0.00001327,-0.00068163,-0.00253971,-0.00013
 636,0.00386632,0.00003945,-0.00019725,-0.00010619,-0.00388226,-0.00018
 617,-0.00131010,-0.00002601,0.00009171,0.00001566,0.01195685,-0.002725
 39,-0.00300588,-0.00006687,-0.00036659,-0.00000910,0.00025443,0.000487
 01,-0.00008569,0.00000716,0.00001941,-0.00001292,-0.00000008,-0.000002
 12,-0.00002981,0.00000688,-0.00002314,0.00002913,-0.00000106,0.0000020
 7,0.00003385,0.05328770,0.14891184,-0.09998270,-0.07657317,-0.16328251
 ,0.10947808,0.00008712,-0.00012992,0.00004274,0.00004890,0.00010408,-0
 .00005795,-0.00037829,-0.00007656,0.00006619,-0.00001939,0.00008698,0.
 00000591,0.00008138,-0.00000469,0.00001390,0.00000439,-0.00007931,-0.0
 0000914,0.00000090,-0.00000254,-0.00000115,0.00000311,0.00006634,0.000
 00780,-0.00001947,-0.00007036,-0.00000465,0.00006961,0.00000372,-0.000
 00527,0.00000113,0.00000251,0.00000007,-0.00003773,0.00002530,0.000020
 59,-0.00002999,-0.00002505,-0.00002009,-0.00004867,-0.00000187,-0.0000
 0370,0.00001641,-0.00000023,0.00001200,0.00001564,0.00000072,-0.000008
 89,0.00074034,-0.00021774,0.00015870,-0.00053284,0.00059668,0.00017107
 ,-0.00038436,0.00119477,-0.00101165,0.00241922,0.00170005,-0.00070214,
 0.00009719,-0.00002644,-0.00003016,-0.00433208,-0.00229409,0.00200191,
 -0.00041044,-0.00003296,0.00005384,-0.01851672,0.01590323,-0.03102773,
 -0.00030029,-0.00103308,0.00066917,0.00013443,-0.00001468,-0.00004761,
 -0.00000075,-0.00000459,0.00000037,0.00000025,0.00000019,0.00000484,-0
 .00000383,0.00000227,-0.00001059,0.00000001,-0.00000060,-0.00000676,-0
 .14563120,0.05959682,-0.14466763,0.01118437,-0.00538472,0.01571081,0.1
 5574168,-0.00036071,0.00054740,-0.00025220,-0.00038616,-0.00063482,0.0
 0023282,0.00210539,0.00005986,0.00005762,0.00010470,-0.00041521,-0.000
 03126,-0.00039167,0.00002745,-0.00005336,-0.00001718,0.00035845,0.0000
 3989,-0.00000659,0.00001469,0.00000445,-0.00002670,-0.00039019,-0.0000
 3977,0.00010036,0.00046130,0.00002456,-0.00042246,-0.00002802,0.000055
 23,-0.00000997,-0.00001663,-0.00000421,0.00014872,-0.00009719,-0.00011
 586,0.00019134,0.00009775,0.00010922,0.00025176,0.00000662,0.00000481,
 -0.00008143,0.00000073,-0.00005763,-0.00008126,-0.00000411,0.00005426,
 -0.00285520,-0.00018473,0.00020420,0.00155508,-0.00119821,-0.00054433,
 0.00219460,0.00149218,0.00080842,-0.00383836,-0.00149815,-0.00000376,-
 0.00003686,0.00000744,0.00007313,-0.00269325,0.00398951,-0.00033331,0.
 00001147,-0.00011786,-0.00018507,0.01230265,-0.00333598,-0.00252958,0.
 00019935,0.00010916,0.00046457,-0.00007163,-0.00019786,-0.00043661,-0.
 00000027,0.00002549,-0.00003144,-0.00000128,-0.00000340,-0.00003249,0.
 00000608,-0.00002331,0.00003296,-0.00000208,0.00000362,0.00003312,0.04
 647350,-0.08582147,0.13966609,0.01552228,-0.00822980,0.01696111,-0.069
 88424,0.09499530,0.00004785,-0.00006488,-0.00000729,-0.00000156,0.0000
 3555,0.00000866,-0.00009696,-0.00009255,-0.00006930,0.00001126,0.00003
 850,-0.00001488,0.00001975,0.00000199,-0.00000151,0.00001288,-0.000021
 02,-0.00000073,0.00000103,-0.00000153,0.00000085,0.00000404,0.00000787
 ,-0.00000070,0.00000218,-0.00001607,-0.00000618,0.00000706,-0.00000253
 ,0.00000279,-0.00000035,0.00000015,0.00000139,-0.00001637,-0.00000076,
 0.00000978,-0.00000207,-0.00000728,0.00000401,-0.00001265,-0.00000115,
 0.00000912,0.00000314,-0.00000005,-0.00000036,0.00000484,0.00000020,-0
 .00000668,-0.00002218,-0.00029669,0.00028756,-0.00044029,0.00030255,-0
 .00021413,0.00077452,0.00061258,0.00088878,0.00162723,-0.00126616,0.00
 096758,0.00002282,0.00002111,0.00000329,0.00111716,0.00106462,0.001136
 91,0.00009683,-0.00013368,-0.00010071,0.00687510,-0.00659830,0.0034608
 3,-0.00055139,-0.00015252,-0.00037509,0.00005726,-0.00038872,-0.000171
 46,-0.00000251,-0.00000087,-0.00000046,-0.00000014,-0.00000036,-0.0000
 0115,0.00000169,0.00000179,0.00000773,-0.00000029,0.00000001,-0.000001
 75,-0.16207055,0.16339242,-0.29660493,-0.00614448,-0.00225868,-0.00889
 677,0.15867517,-0.15417556,0.29968480\\-0.00002824,-0.00000985,-0.0000
 1878,-0.00001528,0.00001426,0.00002139,0.00000238,-0.00000136,-0.00000
 923,0.00003562,0.00000649,0.00004657,0.00001722,0.00005296,-0.00000368
 ,-0.00006106,0.00002060,0.00004093,0.00000257,-0.00001839,-0.00000806,
 -0.00006335,-0.00001235,-0.00004048,0.00002975,-0.00001052,-0.00002635
 ,0.00002301,-0.00005487,0.00000690,0.00000186,0.00001837,0.00000952,0.
 00009659,-0.00000423,-0.00004657,0.00009024,0.00000270,0.00003040,-0.0
 0035779,0.00000307,-0.00002253,0.00010041,-0.00000648,0.00014637,0.000
 07851,0.00000492,-0.00010470,-0.00004324,0.00000002,0.00000150,-0.0000
 0658,-0.00001305,0.00002359,-0.00000454,0.00001579,-0.00002414,0.00008
 889,-0.00002767,0.00003626,0.00000631,0.00000455,-0.00001465,0.0000858
 9,0.00002325,-0.00003884,0.00000859,-0.00000849,0.00001278,-0.00011548
 ,-0.00000621,-0.00000193,-0.00001715,0.00001317,-0.00001918,-0.0000187
 5,-0.00001693,0.00001397,-0.00001098,0.00000058,0.00000354,0.00001616,
 0.00000793,0.00000441,-0.00001358,0.00000165,-0.00000815,0.00001619,-0
 .00000707,-0.00000756,0.00013825,0.00005563,0.00003961,-0.00003992,-0.
 00006448,0.00002364,-0.00004254,0.00001600,-0.00006658\\\@
 The archive entry for this job was punched.


 Cherishing children is the mark of a civilized society.
 -- Joan Ganz Cooney
 Job cpu time:       1 days 23 hours  0 minutes 52.3 seconds.
 Elapsed time:       0 days  1 hours 28 minutes 54.6 seconds.
 File lengths (MBytes):  RWF=   1587 Int=      0 D2E=      0 Chk=     52 Scr=      1
 Normal termination of Gaussian 16 at Fri Oct 10 03:04:13 2025.
