 Entering Gaussian System, Link 0=g16
 Initial command:
 /home/users/sutd/1008721/g16/l1.exe "/home/users/sutd/1008721/scratch/g16/scratch/Gau-1992437.inp" -scrdir="/home/users/sutd/1008721/scratch/g16/scratch/"
 Entering Link 1 = /home/users/sutd/1008721/g16/l1.exe PID=   1992438.
  
 Copyright (c) 1988-2019, Gaussian, Inc.  All Rights Reserved.
  
 This is part of the Gaussian(R) 16 program.  It is based on
 the Gaussian(R) 09 system (copyright 2009, Gaussian, Inc.),
 the Gaussian(R) 03 system (copyright 2003, Gaussian, Inc.),
 the Gaussian(R) 98 system (copyright 1998, Gaussian, Inc.),
 the Gaussian(R) 94 system (copyright 1995, Gaussian, Inc.),
 the Gaussian 92(TM) system (copyright 1992, Gaussian, Inc.),
 the Gaussian 90(TM) system (copyright 1990, Gaussian, Inc.),
 the Gaussian 88(TM) system (copyright 1988, Gaussian, Inc.),
 the Gaussian 86(TM) system (copyright 1986, Carnegie Mellon
 University), and the Gaussian 82(TM) system (copyright 1983,
 Carnegie Mellon University). Gaussian is a federally registered
 trademark of Gaussian, Inc.
  
 This software contains proprietary and confidential information,
 including trade secrets, belonging to Gaussian, Inc.
  
 This software is provided under written license and may be
 used, copied, transmitted, or stored only in accord with that
 written license.
  
 The following legend is applicable only to US Government
 contracts under FAR:
  
                    RESTRICTED RIGHTS LEGEND
  
 Use, reproduction and disclosure by the US Government is
 subject to restrictions as set forth in subparagraphs (a)
 and (c) of the Commercial Computer Software - Restricted
 Rights clause in FAR 52.227-19.
  
 Gaussian, Inc.
 340 Quinnipiac St., Bldg. 40, Wallingford CT 06492
  
  
 ---------------------------------------------------------------
 Warning -- This program may not be used in any manner that
 competes with the business of Gaussian, Inc. or will provide
 assistance to any competitor of Gaussian, Inc.  The licensee
 of this program is prohibited from giving any competitor of
 Gaussian, Inc. access to this program.  By using this program,
 the user acknowledges that Gaussian, Inc. is engaged in the
 business of creating and licensing software in the field of
 computational chemistry and represents and warrants to the
 licensee that it is not a competitor of Gaussian, Inc. and that
 it will not use this program in any manner prohibited above.
 ---------------------------------------------------------------
  

 Cite this work as:
 Gaussian 16, Revision C.01,
 M. J. Frisch, G. W. Trucks, H. B. Schlegel, G. E. Scuseria, 
 M. A. Robb, J. R. Cheeseman, G. Scalmani, V. Barone, 
 G. A. Petersson, H. Nakatsuji, X. Li, M. Caricato, A. V. Marenich, 
 J. Bloino, B. G. Janesko, R. Gomperts, B. Mennucci, H. P. Hratchian, 
 J. V. Ortiz, A. F. Izmaylov, J. L. Sonnenberg, D. Williams-Young, 
 F. Ding, F. Lipparini, F. Egidi, J. Goings, B. Peng, A. Petrone, 
 T. Henderson, D. Ranasinghe, V. G. Zakrzewski, J. Gao, N. Rega, 
 G. Zheng, W. Liang, M. Hada, M. Ehara, K. Toyota, R. Fukuda, 
 J. Hasegawa, M. Ishida, T. Nakajima, Y. Honda, O. Kitao, H. Nakai, 
 T. Vreven, K. Throssell, J. A. Montgomery, Jr., J. E. Peralta, 
 F. Ogliaro, M. J. Bearpark, J. J. Heyd, E. N. Brothers, K. N. Kudin, 
 V. N. Staroverov, T. A. Keith, R. Kobayashi, J. Normand, 
 K. Raghavachari, A. P. Rendell, J. C. Burant, S. S. Iyengar, 
 J. Tomasi, M. Cossi, J. M. Millam, M. Klene, C. Adamo, R. Cammi, 
 J. W. Ochterski, R. L. Martin, K. Morokuma, O. Farkas, 
 J. B. Foresman, and D. J. Fox, Gaussian, Inc., Wallingford CT, 2019.
 
 ******************************************
 Gaussian 16:  ES64L-G16RevC.01  3-Jul-2019
                 7-Oct-2025 
 ******************************************
 %nprocshared=32
 Will use up to   32 processors via shared memory.
 %mem=64GB
 %oldchk=05BDP-NH2_ethanol_wb97xd_wb97xd_wb97xd.chk
 %chk=06BDP-NH2_ethanol_wb97xd_wb97xd_wb97xd.chk
 Copying data from "05BDP-NH2_ethanol_wb97xd_wb97xd_wb97xd.chk" to current chk file "06BDP-NH2_ethanol_wb97xd_wb97xd_wb97xd.chk"
 IOpt=  2 FromEx=T IUOpen= 4 IOptOp= 5 NList=   0 IFRang= 0 IUIn= 4 IUOut= 2.
 ----------------------------------------------------------------------
 # wb97xd/def2tzvp geom=check guess=read TD=(Read, NStates=3, Root=1) S
 CRF=(SMD, solvent=ethanol, CorrectedLR, NonEq=Save)
 ----------------------------------------------------------------------
 1/29=2,30=1,38=1,172=1/1;
 2/12=2,40=1/2;
 3/5=44,7=101,11=9,14=-4,25=1,30=1,70=9032201,71=1,72=4,74=-58,116=-2/1,2,3,8;
 4/5=1/1;
 5/5=2,38=6,53=4/2;
 8/6=1,10=1,107=1,108=3/1;
 9/8=1,15=1,41=3,42=1,49=3,70=2,73=22/14;
 10/5=4,13=10,28=1,74=20/2;
 6/7=2,8=2,9=2,10=2,22=-1/1;
 99/5=1,9=1/99;
 ------------------------------------
 BDP-NH2_ethanol_wb97xd_wb97xd_wb97xd
 ------------------------------------
 Structure from the checkpoint file:  "06BDP-NH2_ethanol_wb97xd_wb97xd_wb97xd.chk"
 Charge =  0 Multiplicity = 1
 Redundant internal coordinates found in file.  (old form).
 C,0,-0.6195392251,1.2306404784,-0.0247943337
 C,0,-0.6192976141,-1.2305502761,-0.0273800669
 C,0,0.0928558543,0.0001037424,-0.0152652153
 C,0,-0.169925375,2.5707064317,-0.0486926119
 C,0,-1.3219123551,3.391895511,-0.0642416426
 C,0,-2.4272945762,2.5460845154,-0.0488310064
 H,0,-1.3518566045,4.4809907644,-0.0875133058
 C,0,-2.426766947,-2.5463557735,-0.0531627916
 C,0,-0.1693938677,-2.570492386,-0.0527674773
 C,0,-1.3212018015,-3.3919072644,-0.0695629801
 H,0,-1.3509067997,-4.4809862332,-0.0938845174
 N,0,-2.0089799456,1.2412350108,-0.0243482599
 N,0,-2.0087381621,-1.2414376462,-0.0272312969
 B,0,-2.9170257788,-0.000275362,0.0501683648
 F,0,-3.6551387285,-0.0017371886,1.2569513762
 F,0,-3.8481072288,0.0008788196,-1.0105848842
 C,0,1.5748491484,0.0001863033,-0.0034085898
 C,0,2.3121044559,0.0066098977,-1.2215358373
 C,0,2.2890097006,-0.005924346,1.2284809622
 C,0,3.6862848755,0.00741913,-1.2230919848
 H,0,1.76768895,0.0115371803,-2.1675205964
 C,0,3.6626687162,-0.0068146846,1.255797884
 H,0,1.7267574074,-0.010643926,2.1639733016
 C,0,4.3965553808,0.0001341594,0.0232798183
 H,0,4.2547543398,0.013334055,-2.1551421297
 H,0,4.2143005678,-0.0125301399,2.1979861809
 H,0,0.8714081908,-2.8901129017,-0.0633114157
 H,0,-3.4878452376,-2.7924096843,-0.0571833295
 H,0,0.8708021012,2.8905545604,-0.0596302346
 H,0,-3.488428073,2.7918959014,-0.053118952
 N,0,5.7264072581,-0.0002037485,0.0368828202
 H,0,6.24205429,-0.0055842195,0.9156343903
 H,0,6.2604600836,0.0048803195,-0.8308046386
 Recover connectivity data from disk.
                           ----------------------------
                           !    Current Parameters    !
                           ! (Angstroms and Degrees)  !
 --------------------------                            --------------------------
 ! Name  Definition              Value                                          !
 --------------------------------------------------------------------------------
 ! R1    R(1,3)                  1.4219                                         !
 ! R2    R(1,4)                  1.4137                                         !
 ! R3    R(1,12)                 1.3895                                         !
 ! R4    R(2,3)                  1.4219                                         !
 ! R5    R(2,9)                  1.4137                                         !
 ! R6    R(2,13)                 1.3895                                         !
 ! R7    R(3,17)                 1.482                                          !
 ! R8    R(4,5)                  1.4148                                         !
 ! R9    R(4,29)                 1.0888                                         !
 ! R10   R(5,6)                  1.3919                                         !
 ! R11   R(5,7)                  1.0898                                         !
 ! R12   R(6,12)                 1.3705                                         !
 ! R13   R(6,30)                 1.0892                                         !
 ! R14   R(8,10)                 1.3919                                         !
 ! R15   R(8,13)                 1.3705                                         !
 ! R16   R(8,28)                 1.0892                                         !
 ! R17   R(9,10)                 1.4148                                         !
 ! R18   R(9,27)                 1.0888                                         !
 ! R19   R(10,11)                1.0898                                         !
 ! R20   R(12,14)                1.54                                           !
 ! R21   R(13,14)                1.54                                           !
 ! R22   R(14,15)                1.4146                                         !
 ! R23   R(14,16)                1.4114                                         !
 ! R24   R(17,18)                1.4239                                         !
 ! R25   R(17,19)                1.4239                                         !
 ! R26   R(18,20)                1.3742                                         !
 ! R27   R(18,21)                1.0915                                         !
 ! R28   R(19,22)                1.3739                                         !
 ! R29   R(19,23)                1.0915                                         !
 ! R30   R(20,24)                1.4346                                         !
 ! R31   R(20,25)                1.0917                                         !
 ! R32   R(22,24)                1.4345                                         !
 ! R33   R(22,26)                1.0918                                         !
 ! R34   R(24,31)                1.3299                                         !
 ! R35   R(31,32)                1.0189                                         !
 ! R36   R(31,33)                1.0189                                         !
 ! A1    A(3,1,4)              131.385                                          !
 ! A2    A(3,1,12)             120.5038                                         !
 ! A3    A(4,1,12)             108.1082                                         !
 ! A4    A(3,2,9)              131.3845                                         !
 ! A5    A(3,2,13)             120.5047                                         !
 ! A6    A(9,2,13)             108.1083                                         !
 ! A7    A(1,3,2)              119.8694                                         !
 ! A8    A(1,3,17)             120.0664                                         !
 ! A9    A(2,3,17)             120.0625                                         !
 ! A10   A(1,4,5)              106.9432                                         !
 ! A11   A(1,4,29)             125.6353                                         !
 ! A12   A(5,4,29)             127.4203                                         !
 ! A13   A(4,5,6)              107.0852                                         !
 ! A14   A(4,5,7)              127.0623                                         !
 ! A15   A(6,5,7)              125.8521                                         !
 ! A16   A(5,6,12)             109.6548                                         !
 ! A17   A(5,6,30)             129.5287                                         !
 ! A18   A(12,6,30)            120.8165                                         !
 ! A19   A(10,8,13)            109.6549                                         !
 ! A20   A(10,8,28)            129.5283                                         !
 ! A21   A(13,8,28)            120.8167                                         !
 ! A22   A(2,9,10)             106.9432                                         !
 ! A23   A(2,9,27)             125.6351                                         !
 ! A24   A(10,9,27)            127.4207                                         !
 ! A25   A(8,10,9)             107.0852                                         !
 ! A26   A(8,10,11)            125.8523                                         !
 ! A27   A(9,10,11)            127.0622                                         !
 ! A28   A(1,12,6)             108.2086                                         !
 ! A29   A(1,12,14)            125.6978                                         !
 ! A30   A(6,12,14)            126.0488                                         !
 ! A31   A(2,13,8)             108.2082                                         !
 ! A32   A(2,13,14)            125.6961                                         !
 ! A33   A(8,13,14)            126.0476                                         !
 ! A34   A(12,14,13)           107.4309                                         !
 ! A35   A(12,14,15)           110.474                                          !
 ! A36   A(12,14,16)           110.6071                                         !
 ! A37   A(13,14,15)           110.4748                                         !
 ! A38   A(13,14,16)           110.608                                          !
 ! A39   A(15,14,16)           107.2733                                         !
 ! A40   A(3,17,18)            120.7252                                         !
 ! A41   A(3,17,19)            120.5601                                         !
 ! A42   A(18,17,19)           118.7147                                         !
 ! A43   A(17,18,20)           121.2486                                         !
 ! A44   A(17,18,21)           118.8963                                         !
 ! A45   A(20,18,21)           119.8551                                         !
 ! A46   A(17,19,22)           121.2412                                         !
 ! A47   A(17,19,23)           118.8917                                         !
 ! A48   A(22,19,23)           119.8671                                         !
 ! A49   A(18,20,24)           119.612                                          !
 ! A50   A(18,20,25)           121.4441                                         !
 ! A51   A(24,20,25)           118.9438                                         !
 ! A52   A(19,22,24)           119.6313                                         !
 ! A53   A(19,22,26)           121.4871                                         !
 ! A54   A(24,22,26)           118.8816                                         !
 ! A55   A(20,24,22)           119.5522                                         !
 ! A56   A(20,24,31)           120.2632                                         !
 ! A57   A(22,24,31)           120.1846                                         !
 ! A58   A(24,31,32)           120.9899                                         !
 ! A59   A(24,31,33)           121.0253                                         !
 ! A60   A(32,31,33)           117.9848                                         !
 ! D1    D(4,1,3,2)           -178.2638                                         !
 ! D2    D(4,1,3,17)             1.26                                           !
 ! D3    D(12,1,3,2)             1.0311                                         !
 ! D4    D(12,1,3,17)         -179.4451                                         !
 ! D5    D(3,1,4,5)            179.295                                          !
 ! D6    D(3,1,4,29)            -0.3279                                         !
 ! D7    D(12,1,4,5)            -0.0658                                         !
 ! D8    D(12,1,4,29)         -179.6887                                         !
 ! D9    D(3,1,12,6)          -179.3729                                         !
 ! D10   D(3,1,12,14)            2.9462                                         !
 ! D11   D(4,1,12,6)             0.0705                                         !
 ! D12   D(4,1,12,14)         -177.6104                                         !
 ! D13   D(9,2,3,1)            178.3355                                         !
 ! D14   D(9,2,3,17)            -1.1884                                         !
 ! D15   D(13,2,3,1)            -1.0179                                         !
 ! D16   D(13,2,3,17)          179.4582                                         !
 ! D17   D(3,2,9,10)          -179.3463                                         !
 ! D18   D(3,2,9,27)             0.311                                          !
 ! D19   D(13,2,9,10)            0.0676                                         !
 ! D20   D(13,2,9,27)          179.7249                                         !
 ! D21   D(3,2,13,8)           179.4269                                         !
 ! D22   D(3,2,13,14)           -2.9736                                         !
 ! D23   D(9,2,13,8)            -0.0627                                         !
 ! D24   D(9,2,13,14)          177.5368                                         !
 ! D25   D(1,3,17,18)          -89.5229                                         !
 ! D26   D(1,3,17,19)           90.4657         Frozen                          !
 ! D27   D(2,3,17,18)           90.0            Frozen                          !
 ! D28   D(2,3,17,19)          -90.0113                                         !
 ! D29   D(1,4,5,6)              0.0365                                         !
 ! D30   D(1,4,5,7)           -179.7629                                         !
 ! D31   D(29,4,5,6)           179.6506                                         !
 ! D32   D(29,4,5,7)            -0.1488                                         !
 ! D33   D(4,5,6,12)             0.0066                                         !
 ! D34   D(4,5,6,30)           179.9621                                         !
 ! D35   D(7,5,6,12)           179.8091                                         !
 ! D36   D(7,5,6,30)            -0.2354                                         !
 ! D37   D(5,6,12,1)            -0.0481                                         !
 ! D38   D(5,6,12,14)          177.6225                                         !
 ! D39   D(30,6,12,1)          179.9919                                         !
 ! D40   D(30,6,12,14)          -2.3375                                         !
 ! D41   D(13,8,10,9)            0.009                                          !
 ! D42   D(13,8,10,11)        -179.8202                                         !
 ! D43   D(28,8,10,9)         -179.9122                                         !
 ! D44   D(28,8,10,11)           0.2587                                         !
 ! D45   D(10,8,13,2)            0.0334                                         !
 ! D46   D(10,8,13,14)        -177.5554                                         !
 ! D47   D(28,8,13,2)          179.9626                                         !
 ! D48   D(28,8,13,14)           2.3737                                         !
 ! D49   D(2,9,10,8)            -0.0469                                         !
 ! D50   D(2,9,10,11)          179.7796                                         !
 ! D51   D(27,9,10,8)         -179.6962                                         !
 ! D52   D(27,9,10,11)           0.1303                                         !
 ! D53   D(1,12,14,13)          -5.8685                                         !
 ! D54   D(1,12,14,15)         114.7008                                         !
 ! D55   D(1,12,14,16)        -126.6784                                         !
 ! D56   D(6,12,14,13)         176.8565                                         !
 ! D57   D(6,12,14,15)         -62.5742                                         !
 ! D58   D(6,12,14,16)          56.0466                                         !
 ! D59   D(2,13,14,12)           5.8822                                         !
 ! D60   D(2,13,14,15)        -114.6866                                         !
 ! D61   D(2,13,14,16)         126.6916                                         !
 ! D62   D(8,13,14,12)        -176.9383                                         !
 ! D63   D(8,13,14,15)          62.4929                                         !
 ! D64   D(8,13,14,16)         -56.129                                          !
 ! D65   D(3,17,18,20)         179.9675                                         !
 ! D66   D(3,17,18,21)           0.0029                                         !
 ! D67   D(19,17,18,20)         -0.0214                                         !
 ! D68   D(19,17,18,21)       -179.986                                          !
 ! D69   D(3,17,19,22)         179.9568                                         !
 ! D70   D(3,17,19,23)          -0.0016                                         !
 ! D71   D(18,17,19,22)         -0.0543                                         !
 ! D72   D(18,17,19,23)        179.9873                                         !
 ! D73   D(17,18,20,24)          0.072                                          !
 ! D74   D(17,18,20,25)       -179.9386                                         !
 ! D75   D(21,18,20,24)       -179.9638                                         !
 ! D76   D(21,18,20,25)          0.0256                                         !
 ! D77   D(17,19,22,24)          0.0754                                         !
 ! D78   D(17,19,22,26)       -179.9361                                         !
 ! D79   D(23,19,22,24)       -179.9666                                         !
 ! D80   D(23,19,22,26)          0.022                                          !
 ! D81   D(18,20,24,22)         -0.0501                                         !
 ! D82   D(18,20,24,31)        179.9487                                         !
 ! D83   D(25,20,24,22)        179.9603                                         !
 ! D84   D(25,20,24,31)         -0.0409                                         !
 ! D85   D(19,22,24,20)         -0.0235                                         !
 ! D86   D(19,22,24,31)        179.9777                                         !
 ! D87   D(26,22,24,20)        179.9877                                         !
 ! D88   D(26,22,24,31)         -0.0112                                         !
 ! D89   D(20,24,31,32)       -179.9842                                         !
 ! D90   D(20,24,31,33)          0.014                                          !
 ! D91   D(22,24,31,32)          0.0146                                         !
 ! D92   D(22,24,31,33)       -179.9872                                         !
 --------------------------------------------------------------------------------
                          Input orientation:                          
 ---------------------------------------------------------------------
 Center     Atomic      Atomic             Coordinates (Angstroms)
 Number     Number       Type             X           Y           Z
 ---------------------------------------------------------------------
      1          6           0       -0.619539    1.230640   -0.024794
      2          6           0       -0.619298   -1.230550   -0.027380
      3          6           0        0.092856    0.000104   -0.015265
      4          6           0       -0.169925    2.570706   -0.048693
      5          6           0       -1.321912    3.391896   -0.064242
      6          6           0       -2.427295    2.546085   -0.048831
      7          1           0       -1.351857    4.480991   -0.087513
      8          6           0       -2.426767   -2.546356   -0.053163
      9          6           0       -0.169394   -2.570492   -0.052767
     10          6           0       -1.321202   -3.391907   -0.069563
     11          1           0       -1.350907   -4.480986   -0.093885
     12          7           0       -2.008980    1.241235   -0.024348
     13          7           0       -2.008738   -1.241438   -0.027231
     14          5           0       -2.917026   -0.000275    0.050168
     15          9           0       -3.655139   -0.001737    1.256951
     16          9           0       -3.848107    0.000879   -1.010585
     17          6           0        1.574849    0.000186   -0.003409
     18          6           0        2.312104    0.006610   -1.221536
     19          6           0        2.289010   -0.005924    1.228481
     20          6           0        3.686285    0.007419   -1.223092
     21          1           0        1.767689    0.011537   -2.167521
     22          6           0        3.662669   -0.006815    1.255798
     23          1           0        1.726757   -0.010644    2.163973
     24          6           0        4.396555    0.000134    0.023280
     25          1           0        4.254754    0.013334   -2.155142
     26          1           0        4.214301   -0.012530    2.197986
     27          1           0        0.871408   -2.890113   -0.063311
     28          1           0       -3.487845   -2.792410   -0.057183
     29          1           0        0.870802    2.890555   -0.059630
     30          1           0       -3.488428    2.791896   -0.053119
     31          7           0        5.726407   -0.000204    0.036883
     32          1           0        6.242054   -0.005584    0.915634
     33          1           0        6.260460    0.004880   -0.830805
 ---------------------------------------------------------------------
                    Distance matrix (angstroms):
                    1          2          3          4          5
     1  C    0.000000
     2  C    2.461192   0.000000
     3  C    1.421907   1.421907   0.000000
     4  C    1.413683   3.827786   2.584215   0.000000
     5  C    2.272863   4.675685   3.675353   1.414803   0.000000
     6  C    2.235833   4.187157   3.582500   2.257503   1.391942
     7  H    3.332416   5.758642   4.708584   2.246699   1.089755
     8  C    4.187192   2.235834   3.582512   5.592645   6.040170
     9  C    3.827796   1.413684   2.584211   5.141200   6.072767
    10  C    4.675712   2.272864   3.675357   6.072778   6.783805
    11  H    5.758676   3.332418   4.708588   7.150044   7.872991
    12  N    1.389481   2.835657   2.440943   2.269407   2.258095
    13  N    2.835675   1.389483   2.440956   4.232509   4.684109
    14  B    2.607531   2.607517   3.010593   3.763812   3.750240
    15  F    3.518024   3.517928   3.958030   4.524255   4.325071
    16  F    3.592735   3.592815   4.064708   4.588929   4.333154
    17  C    2.515912   2.515863   1.482041   3.107067   4.460787
    18  C    3.394845   3.398484   2.525905   3.756411   5.099565
    19  C    3.399919   3.396343   2.523892   3.783723   5.123970
    20  C    4.633822   4.636845   3.790993   4.777030   6.154645
    21  H    3.431668   3.438123   2.727160   3.846184   5.039468
    22  C    4.637728   4.634578   3.789355   4.799384   6.175742
    23  H    3.440436   3.434265   2.723753   3.893156   5.082972
    24  C    5.165042   5.164875   4.303872   5.240779   6.649254
    25  H    5.457010   5.461776   4.679813   5.527664   6.847317
    26  H    5.463720   5.458892   4.678135   5.562564   6.881674
    27  H    4.382353   2.231063   2.993627   5.559239   6.653893
    28  H    4.940968   3.266322   4.541069   6.306479   6.552629
    29  H    2.231064   4.382344   2.993639   1.088823   2.249302
    30  H    3.266320   4.940915   4.541050   3.325869   2.248091
    31  N    6.464504   6.464198   5.633793   6.433012   7.822747
    32  H    7.035206   7.033347   6.219264   6.977154   8.349648
    33  H    7.034666   7.035826   6.221292   6.967426   8.339776
                    6          7          8          9         10
     6  C    0.000000
     7  H    2.214029   0.000000
     8  C    5.092442   7.109164   0.000000
     9  C    5.592628   7.150024   2.257502   0.000000
    10  C    6.040167   7.872978   1.391941   1.414802   0.000000
    11  H    7.109175   8.961979   2.214030   2.246698   1.089755
    12  N    1.370481   3.306330   3.810672   4.232511   4.684132
    13  N    3.810640   5.760322   1.370486   2.269411   2.258100
    14  B    2.594915   4.748732   2.594910   3.763787   3.750221
    15  F    3.115135   5.216085   3.114543   4.523747   4.324368
    16  F    3.069487   5.211020   3.070060   4.589368   4.333794
    17  C    4.743502   5.352596   4.743446   3.106961   4.460693
    18  C    5.503278   5.893276   5.508142   3.763683   5.106650
    19  C    5.512513   5.926226   5.507717   3.776553   5.116974
    20  C    6.723062   6.832661   6.727548   4.783466   6.161248
    21  H    5.339538   5.833868   5.348531   3.858931   5.052337
    22  C    6.731048   6.862241   6.726357   4.792650   6.168825
    23  H    5.356259   5.892524   5.347644   3.880999   5.070669
    24  C    7.283680   7.289348   7.283418   5.240400   6.648858
    25  H    7.449909   7.461175   7.457416   5.537980   6.858323
    26  H    7.463611   7.509816   7.455986   5.552102   6.870499
    27  H    6.358765   7.699134   3.316057   1.088824   2.249306
    28  H    5.442826   7.580615   1.089241   3.325866   2.248087
    29  H    3.316055   2.733217   6.358773   5.559235   6.653894
    30  H    1.089241   2.723814   5.442798   6.306441   6.552600
    31  N    8.542469   8.378448   8.541970   6.432332   7.822006
    32  H    9.088389   8.877113   9.085293   6.973035   8.345097
    33  H    9.085498   8.862021   9.087433   6.970001   8.342617
                   11         12         13         14         15
    11  H    0.000000
    12  N    5.760357   0.000000
    13  N    3.306336   2.482674   0.000000
    14  B    4.748710   1.539951   1.539955   0.000000
    15  F    5.215162   2.428281   2.428295   1.414616   0.000000
    16  F    5.211858   2.427660   2.427676   1.411422   2.275734
    17  C    5.352489   3.792687   3.792663   4.492194   5.379710
    18  C    5.901506   4.650734   4.653350   5.381550   6.461498
    19  C    5.918093   4.647333   4.644776   5.337720   5.944218
    20  C    6.840628   5.949397   5.951724   6.724951   7.749013
    21  H    5.848792   4.513155   4.517985   5.183130   6.413598
    22  C    6.853889   5.946764   5.944351   6.689242   7.317809
    23  H    5.878256   4.506849   4.502239   5.102255   5.457799
    24  C    7.288861   6.524836   6.524710   7.313631   8.145657
    25  H    7.474700   6.729219   6.733038   7.503200   8.614466
    26  H    7.496086   6.726063   6.722203   7.447757   7.925512
    27  H    2.733221   5.036486   3.318836   4.766159   5.529506
    28  H    2.723810   4.296325   2.143401   2.851907   3.089141
    29  H    7.699141   3.318832   5.036483   4.766193   5.530179
    30  H    7.580598   2.143395   4.296270   2.851910   3.090059
    31  N    8.377523   7.834611   7.834363   8.643443   9.460548
    32  H    8.871382   8.397481   8.395946   9.199881   9.903077
    33  H    8.865605   8.400154   8.401112   9.219674  10.133009
                   16         17         18         19         20
    16  F    0.000000
    17  C    5.515692   0.000000
    18  C    6.163825   1.423875   0.000000
    19  C    6.532815   1.423943   2.450158   0.000000
    20  C    7.537391   2.438409   1.374182   2.821837   0.000000
    21  H    5.733741   2.172716   1.091467   3.435827   2.138451
    22  C    7.845273   2.438163   2.821593   1.373931   2.479043
    23  H    6.415377   2.172726   3.435782   1.091465   3.913092
    24  C    8.309232   2.821832   2.427868   2.427817   1.434566
    25  H    8.183308   3.436862   2.155355   3.913238   1.091746
    26  H    8.677415   3.437005   3.913036   2.155627   3.461643
    27  H    5.615068   2.975273   3.436291   3.463649   4.202893
    28  H    2.973420   5.782072   6.544436   6.541367   7.788872
    29  H    5.614503   2.975411   3.427027   3.472770   4.194408
    30  H    2.972522   5.782118   6.539816   6.545921   7.784514
    31  N    9.631641   4.151754   3.638836   3.638082   2.397852
    32  H   10.272377   4.756835   4.473494   3.965405   3.332608
    33  H   10.110167   4.758104   3.967642   4.473611   2.603896
                   21         22         23         24         25
    21  H    0.000000
    22  C    3.912850   0.000000
    23  H    4.331744   2.138352   0.000000
    24  C    3.422086   1.434482   3.422062   0.000000
    25  H    2.487097   3.462006   5.004608   2.183072   0.000000
    26  H    5.004412   1.091810   2.487776   2.182367   4.353393
    27  H    3.694670   4.224286   3.739487   4.559352   4.924712
    28  H    6.319516   7.785455   6.313782   8.364720   8.498322
    29  H    3.679178   4.233157   3.754201   4.559862   4.911283
    30  H    6.310931   7.790008   6.322016   8.364971   8.490923
    31  N    4.531113   2.396834   4.530102   1.329921   2.640250
    32  H    5.433791   2.601719   4.684686   2.049926   3.657784
    33  H    4.687414   3.332051   5.433544   2.050274   2.403497
                   26         27         28         29         30
    26  H    0.000000
    27  H    4.956700   0.000000
    28  H    8.493325   4.360353   0.000000
    29  H    4.970283   5.780669   7.161976   0.000000
    30  H    8.500842   7.161948   5.584307   4.360351   0.000000
    31  N    2.637610   5.650896   9.628484   5.651787   9.628972
    32  H    2.399221   6.174357  10.167778   6.179734  10.170873
    33  H    3.655222   6.165380  10.171174   6.162000  10.169222
                   31         32         33
    31  N    0.000000
    32  H    1.018884   0.000000
    33  H    1.018882   1.746567   0.000000
 Stoichiometry    C15H12BF2N3
 Framework group  C1[X(C15H12BF2N3)]
 Deg. of freedom    93
 Full point group                 C1      NOp   1
 Largest Abelian subgroup         C1      NOp   1
 Largest concise Abelian subgroup C1      NOp   1
                         Standard orientation:                         
 ---------------------------------------------------------------------
 Center     Atomic      Atomic             Coordinates (Angstroms)
 Number     Number       Type             X           Y           Z
 ---------------------------------------------------------------------
      1          6           0       -0.619573    1.230661   -0.024820
      2          6           0       -0.619396   -1.230530   -0.027405
      3          6           0        0.092790    0.000105   -0.015291
      4          6           0       -0.169924    2.570715   -0.048718
      5          6           0       -1.321889    3.391935   -0.064267
      6          6           0       -2.427294    2.546153   -0.048856
      7          1           0       -1.351805    4.481031   -0.087539
      8          6           0       -2.426900   -2.546288   -0.053188
      9          6           0       -0.169528   -2.570484   -0.052793
     10          6           0       -1.321357   -3.391868   -0.069588
     11          1           0       -1.351091   -4.480946   -0.093910
     12          7           0       -2.009013    1.241292   -0.024374
     13          7           0       -2.008837   -1.241381   -0.027257
     14          5           0       -2.917092   -0.000194    0.050143
     15          9           0       -3.655205   -0.001637    1.256926
     16          9           0       -3.848173    0.000984   -1.010610
     17          6           0        1.574783    0.000149   -0.003434
     18          6           0        2.312039    0.006553   -1.221561
     19          6           0        2.288943   -0.005981    1.228456
     20          6           0        3.686219    0.007326   -1.223117
     21          1           0        1.767623    0.011495   -2.167546
     22          6           0        3.662602   -0.006907    1.255773
     23          1           0        1.726691   -0.010685    2.163948
     24          6           0        4.396489    0.000022    0.023255
     25          1           0        4.254689    0.013226   -2.155167
     26          1           0        4.214234   -0.012637    2.197961
     27          1           0        0.871266   -2.890132   -0.063337
     28          1           0       -3.487985   -2.792314   -0.057209
     29          1           0        0.870812    2.890536   -0.059656
     30          1           0       -3.488421    2.791992   -0.053144
     31          7           0        5.726341   -0.000351    0.036858
     32          1           0        6.241988   -0.005745    0.915609
     33          1           0        6.260394    0.004719   -0.830830
 ---------------------------------------------------------------------
 Rotational constants (GHZ):           0.5703770           0.2106994           0.1685602
 Standard basis: def2TZVP (5D, 7F)
 There are   828 symmetry adapted cartesian basis functions of A   symmetry.
 There are   723 symmetry adapted basis functions of A   symmetry.
   723 basis functions,  1167 primitive gaussians,   828 cartesian basis functions
    73 alpha electrons       73 beta electrons
       nuclear repulsion energy      1580.2731790400 Hartrees.
 NAtoms=   33 NActive=   33 NUniq=   33 SFac= 1.00D+00 NAtFMM=   60 NAOKFM=F Big=F
 Integral buffers will be    131072 words long.
 Raffenetti 1 integral format.
 Two-electron integral symmetry is turned on.
 Nuclear repulsion after empirical dispersion term =     1580.2485853599 Hartrees.
 ------------------------------------------------------------------------------
 Polarizable Continuum Model (PCM)
 =================================
 Model                : PCM.
 Atomic radii         : SMD-Coulomb.
 Polarization charges : Total charges.
 Charge compensation  : None.
 Solution method      : On-the-fly selection.
 Cavity type          : VdW (van der Waals Surface) (Alpha=1.000).
 Cavity algorithm     : GePol (No added spheres)
                        Default sphere list used, NSphG=   33.
                        Lebedev-Laikov grids with approx.  5.0 points / Ang**2.
                        Smoothing algorithm: York/Karplus (Gamma=1.0000).
                        Polarization charges: spherical gaussians, with
                                              point-specific exponents (IZeta= 3).
                        Self-potential: point-specific (ISelfS= 7).
                        Self-field    : sphere-specific E.n sum rule (ISelfD= 2).
 1st derivatives      : Analytical E(r).r(x)/FMM algorithm (CHGder, D1EAlg=3).
                        Cavity 1st derivative terms included.
 Solvent              : Ethanol, Eps=  24.852000 Eps(inf)=   1.852593
 ------------------------------------------------------------------------------
 ------------------------------------------------------------------------------
 Atomic radii for non-electrostatic terms: SMD-CDS.
 ------------------------------------------------------------------------------
 Nuclear repulsion after PCM non-electrostatic terms =     1580.2479767568 Hartrees.
 One-electron integrals computed using PRISM.
   1 Symmetry operations used in ECPInt.
 ECPInt:  NShTT=   39060 NPrTT=  121776 LenC2=   34331 LenP2D=   76526.
 LDataN:  DoStor=T MaxTD1= 6 Len=  172
 NBasis=   723 RedAO= T EigKep=  7.56D-06  NBF=   723
 NBsUse=   723 1.00D-06 EigRej= -1.00D+00 NBFU=   723
 Initial guess from the checkpoint file:  "06BDP-NH2_ethanol_wb97xd_wb97xd_wb97xd.chk"
 B after Tr=     0.000000    0.000000    0.000000
         Rot=    1.000000    0.000000   -0.000000    0.000000 Ang=   0.00 deg.
 Requested convergence on RMS density matrix=1.00D-08 within 128 cycles.
 Requested convergence on MAX density matrix=1.00D-06.
 Requested convergence on             energy=1.00D-06.
 No special actions if energy rises.
 Inv3:  Mode=1 IEnd=    20342448.
 Iteration    1 A*A^-1 deviation from unit magnitude is 4.66D-15 for   2582.
 Iteration    1 A*A^-1 deviation from orthogonality  is 1.97D-15 for   1621    846.
 Iteration    1 A^-1*A deviation from unit magnitude is 4.66D-15 for   2582.
 Iteration    1 A^-1*A deviation from orthogonality  is 8.22D-14 for   1631   1582.
 Error on total polarization charges =  0.04711
 SCF Done:  E(RwB97XD) =  -967.856916403     A.U. after    1 cycles
            NFock=  1  Conv=0.12D-08     -V/T= 2.0054
 SMD-CDS (non-electrostatic) energy       (kcal/mol) =      -0.38
 (included in total energy above)
 DoSCS=F DFT=T ScalE2(SS,OS)=  1.000000  1.000000
 ExpMin= 6.06D-02 ExpMax= 3.55D+04 ExpMxC= 1.21D+03 IAcc=3 IRadAn=         5 AccDes= 0.00D+00
 HarFok:  IExCor=  205 AccDes= 0.00D+00 IRadAn=         5 IDoV=-2 UseB2=F ITyADJ=14
 ICtDFT= 12500011 ScaDFX=  1.000000  1.000000  1.000000  1.000000
 GSVD:  LWork=        -609 too small for GESVD, short by        2520 words or        2520 for optimal perf.
 Range of M.O.s used for correlation:    22   723
 NBasis=   723 NAE=    73 NBE=    73 NFC=    21 NFV=     0
 NROrb=    702 NOA=    52 NOB=    52 NVA=   650 NVB=   650

 **** Warning!!: The largest alpha MO coefficient is  0.74508331D+02

 NEqPCM:  Using equilibrium solvation (IEInf=0, Eps=  24.8520, EpsInf=   1.8526)
 Orbital symmetries:
       Occupied  (A) (A) (A) (A) (A) (A) (A) (A) (A) (A) (A) (A)
                 (A) (A) (A) (A) (A) (A) (A) (A) (A) (A) (A) (A)
                 (A) (A) (A) (A) (A) (A) (A) (A) (A) (A) (A) (A)
                 (A) (A) (A) (A) (A) (A) (A) (A) (A) (A) (A) (A)
                 (A) (A) (A) (A) (A) (A) (A) (A) (A) (A) (A) (A)
                 (A) (A) (A) (A) (A) (A) (A) (A) (A) (A) (A) (A)
                 (A)
       Virtual   (A) (A) (A) (A) (A) (A) (A) (A) (A) (A) (A) (A)
                 (A) (A) (A) (A) (A) (A) (A) (A) (A) (A) (A) (A)
                 (A) (A) (A) (A) (A) (A) (A) (A) (A) (A) (A) (A)
                 (A) (A) (A) (A) (A) (A) (A) (A) (A) (A) (A) (A)
                 (A) (A) (A) (A) (A) (A) (A) (A) (A) (A) (A) (A)
                 (A) (A) (A) (A) (A) (A) (A) (A) (A) (A) (A) (A)
                 (A) (A) (A) (A) (A) (A) (A) (A) (A) (A) (A) (A)
                 (A) (A) (A) (A) (A) (A) (A) (A) (A) (A) (A) (A)
                 (A) (A) (A) (A) (A) (A) (A) (A) (A) (A) (A) (A)
                 (A) (A) (A) (A) (A) (A) (A) (A) (A) (A) (A) (A)
                 (A) (A) (A) (A) (A) (A) (A) (A) (A) (A) (A) (A)
                 (A) (A) (A) (A) (A) (A) (A) (A) (A) (A) (A) (A)
                 (A) (A) (A) (A) (A) (A) (A) (A) (A) (A) (A) (A)
                 (A) (A) (A) (A) (A) (A) (A) (A) (A) (A) (A) (A)
                 (A) (A) (A) (A) (A) (A) (A) (A) (A) (A) (A) (A)
                 (A) (A) (A) (A) (A) (A) (A) (A) (A) (A) (A) (A)
                 (A) (A) (A) (A) (A) (A) (A) (A) (A) (A) (A) (A)
                 (A) (A) (A) (A) (A) (A) (A) (A) (A) (A) (A) (A)
                 (A) (A) (A) (A) (A) (A) (A) (A) (A) (A) (A) (A)
                 (A) (A) (A) (A) (A) (A) (A) (A) (A) (A) (A) (A)
                 (A) (A) (A) (A) (A) (A) (A) (A) (A) (A) (A) (A)
                 (A) (A) (A) (A) (A) (A) (A) (A) (A) (A) (A) (A)
                 (A) (A) (A) (A) (A) (A) (A) (A) (A) (A) (A) (A)
                 (A) (A) (A) (A) (A) (A) (A) (A) (A) (A) (A) (A)
                 (A) (A) (A) (A) (A) (A) (A) (A) (A) (A) (A) (A)
                 (A) (A) (A) (A) (A) (A) (A) (A) (A) (A) (A) (A)
                 (A) (A) (A) (A) (A) (A) (A) (A) (A) (A) (A) (A)
                 (A) (A) (A) (A) (A) (A) (A) (A) (A) (A) (A) (A)
                 (A) (A) (A) (A) (A) (A) (A) (A) (A) (A) (A) (A)
                 (A) (A) (A) (A) (A) (A) (A) (A) (A) (A) (A) (A)
                 (A) (A) (A) (A) (A) (A) (A) (A) (A) (A) (A) (A)
                 (A) (A) (A) (A) (A) (A) (A) (A) (A) (A) (A) (A)
                 (A) (A) (A) (A) (A) (A) (A) (A) (A) (A) (A) (A)
                 (A) (A) (A) (A) (A) (A) (A) (A) (A) (A) (A) (A)
                 (A) (A) (A) (A) (A) (A) (A) (A) (A) (A) (A) (A)
                 (A) (A) (A) (A) (A) (A) (A) (A) (A) (A) (A) (A)
                 (A) (A) (A) (A) (A) (A) (A) (A) (A) (A) (A) (A)
                 (A) (A) (A) (A) (A) (A) (A) (A) (A) (A) (A) (A)
                 (A) (A) (A) (A) (A) (A) (A) (A) (A) (A) (A) (A)
                 (A) (A) (A) (A) (A) (A) (A) (A) (A) (A) (A) (A)
                 (A) (A) (A) (A) (A) (A) (A) (A) (A) (A) (A) (A)
                 (A) (A) (A) (A) (A) (A) (A) (A) (A) (A) (A) (A)
                 (A) (A) (A) (A) (A) (A) (A) (A) (A) (A) (A) (A)
                 (A) (A) (A) (A) (A) (A) (A) (A) (A) (A) (A) (A)
                 (A) (A) (A) (A) (A) (A) (A) (A) (A) (A) (A) (A)
                 (A) (A) (A) (A) (A) (A) (A) (A) (A) (A) (A) (A)
                 (A) (A) (A) (A) (A) (A) (A) (A) (A) (A) (A) (A)
                 (A) (A) (A) (A) (A) (A) (A) (A) (A) (A) (A) (A)
                 (A) (A) (A) (A) (A) (A) (A) (A) (A) (A) (A) (A)
                 (A) (A) (A) (A) (A) (A) (A) (A) (A) (A) (A) (A)
                 (A) (A) (A) (A) (A) (A) (A) (A) (A) (A) (A) (A)
                 (A) (A) (A) (A) (A) (A) (A) (A) (A) (A) (A) (A)
                 (A) (A) (A) (A) (A) (A) (A) (A) (A) (A) (A) (A)
                 (A) (A) (A) (A) (A) (A) (A) (A) (A) (A) (A) (A)
                 (A) (A)
 Generating guess from checkpoint file densities.
 Convergence on wavefunction:    0.000001000000000
 Iteration     1 Dimension     6 NMult     0 NNew      6
 CISAX will form     6 AO SS matrices at one time.
 Iteration     2 Dimension    12 NMult     6 NNew      6
 Iteration     3 Dimension    18 NMult    12 NNew      6
 Iteration     4 Dimension    24 NMult    18 NNew      6
 Iteration     5 Dimension    30 NMult    24 NNew      6
 Iteration     6 Dimension    36 NMult    30 NNew      6
 Iteration     7 Dimension    42 NMult    36 NNew      6
 Iteration     8 Dimension    48 NMult    42 NNew      6
 Iteration     9 Dimension    52 NMult    48 NNew      4
 Iteration    10 Dimension    54 NMult    52 NNew      2
 Iteration    11 Dimension    56 NMult    54 NNew      2
 Iteration    12 Dimension    58 NMult    56 NNew      2
 Iteration    13 Dimension    60 NMult    58 NNew      2
 PCM Corrected Linear-Response:
 The state of interest is root number   1
 Excitation energy =    2.4768 eV, Total energy =  -967.765894257    
 Recompute the excitation energies using the linear response reaction field.
 Convergence on wavefunction:    0.000001000000000
 Iteration     1 Dimension     6 NMult     0 NNew      6
 Iteration     2 Dimension    12 NMult     6 NNew      6
 Iteration     3 Dimension    18 NMult    12 NNew      6
 Iteration     4 Dimension    24 NMult    18 NNew      6
 Iteration     5 Dimension    30 NMult    24 NNew      6
 Iteration     6 Dimension    36 NMult    30 NNew      6
 Iteration     7 Dimension    42 NMult    36 NNew      6
 Iteration     8 Dimension    46 NMult    42 NNew      4
 Iteration     9 Dimension    50 NMult    46 NNew      4
 Iteration    10 Dimension    52 NMult    50 NNew      2
 Iteration    11 Dimension    54 NMult    52 NNew      2
 Iteration    12 Dimension    56 NMult    54 NNew      2
 Iteration    13 Dimension    58 NMult    56 NNew      2
 ***********************************************************************
 Excited states from <AA,BB:AA,BB> singles matrix:
 ***********************************************************************
 
 Ground to excited state transition densities written to RWF  633
 Ground to excited state transition electric dipole moments (Au):
       state          X           Y           Z        Dip. S.      Osc.
         1         0.0192     -0.1905      0.0001      0.0366      0.0022
         2         0.0007      3.6471      0.0033     13.3016      0.8371
         3         0.0001     -0.7633     -0.0006      0.5826      0.0521
 Ground to excited state transition velocity dipole moments (Au):
       state          X           Y           Z        Dip. S.      Osc.
         1        -0.0017      0.0172     -0.0000      0.0003      0.0022
         2        -0.0001     -0.3423     -0.0003      0.1171      0.8273
         3        -0.0000      0.1026      0.0001      0.0105      0.0523
 Ground to excited state transition magnetic dipole moments (Au):
       state          X           Y           Z
         1        -0.0763      0.0000      0.0174
         2        -0.0154      0.0001     -0.4018
         3         0.0000      0.0012     -1.4431
 Ground to excited state transition velocity quadrupole moments (Au):
       state          XX          YY          ZZ          XY          XZ          YZ
         1        -0.0091      0.0045     -0.0004     -0.0520     -0.0001     -0.0048
         2        -0.0007      0.0002      0.0000      1.0353      0.0008      0.0356
         3        -0.0001      0.0001     -0.0000      0.2531      0.0004     -0.0077
 <0|del|b> * <b|rxdel|0> + <0|del|b> * <b|delr+rdel|0>
 Rotatory Strengths (R) in cgs (10**-40 erg-esu-cm/Gauss)
       state          XX          YY          ZZ    R(velocity)    E-M Angle
         1         0.0093      0.5428      0.4794      0.3438       84.38
         2         0.2137      1.6365     -1.2120      0.2127       90.00
         3        -0.0503     -0.3836      0.4090     -0.0083       90.00
 1/2[<0|r|b>*<b|rxdel|0> + (<0|rxdel|b>*<b|r|0>)*]
 Rotatory Strengths (R) in cgs (10**-40 erg-esu-cm/Gauss)
       state          XX          YY          ZZ     R(length)
         1         1.0351      0.0063     -0.0012      0.3468
         2         0.0079     -0.2894      0.9248      0.2144
         3        -0.0000      0.6271     -0.6485     -0.0072
  1/2[<0|del|b>*<b|r|0> + (<0|r|b>*<b|del|0>)*] (Au)
       state          X           Y           Z        Dip. S.   Osc.(frdel)
         1        -0.0000     -0.0033     -0.0000      0.0033      0.0022
         2        -0.0000     -1.2483     -0.0000      1.2483      0.8322
         3        -0.0000     -0.0783     -0.0000      0.0783      0.0522

 Excitation energies and oscillator strengths:
 
 Excited State   1:      Singlet-A      2.4761 eV  500.72 nm  f=0.0022  <S**2>=0.000
      67 -> 74        -0.14092
      73 -> 74         0.68814
 This state for optimization and/or second-order correction.
 Total Energy, E(TD-HF/TD-DFT) =  -967.765920335    
 Copying the excited state density for this state as the 1-particle RhoCI density.
 
 Excited State   2:      Singlet-A      2.5687 eV  482.67 nm  f=0.8371  <S**2>=0.000
      72 -> 74         0.69949
 
 Excited State   3:      Singlet-A      3.6510 eV  339.59 nm  f=0.0521  <S**2>=0.000
      70 -> 74         0.28051
      71 -> 74         0.64372
 SavETr:  write IOETrn=   770 NScale= 10 NData=  16 NLR=1 NState=    3 LETran=      64.
 NEqPCM:  Using equilibrium solvation (IEInf=0, Eps=  24.8520, EpsInf=   1.8526)
          Differentiating once with respect to electric field.
                with respect to dipole field.
          Electric field/nuclear overlap derivatives assumed to be zero.
          There are     1 degrees of freedom in the 1st order CPHF.  IDoFFX=0 NUNeed=     1.
 LinEq1:  Iter=  0 NonCon=     1 RMS=3.23D-03 Max=1.52D-01 NDo=     1
 AX will form     1 AO Fock derivatives at one time.
 LinEq1:  Iter=  1 NonCon=     1 RMS=1.10D-03 Max=1.17D-01 NDo=     1
 LinEq1:  Iter=  2 NonCon=     1 RMS=6.94D-04 Max=8.50D-02 NDo=     1
 LinEq1:  Iter=  3 NonCon=     1 RMS=2.84D-04 Max=2.62D-02 NDo=     1
 LinEq1:  Iter=  4 NonCon=     1 RMS=1.25D-04 Max=7.88D-03 NDo=     1
 LinEq1:  Iter=  5 NonCon=     1 RMS=5.55D-05 Max=2.81D-03 NDo=     1
 LinEq1:  Iter=  6 NonCon=     1 RMS=2.31D-05 Max=1.48D-03 NDo=     1
 LinEq1:  Iter=  7 NonCon=     1 RMS=1.23D-05 Max=6.69D-04 NDo=     1
 LinEq1:  Iter=  8 NonCon=     1 RMS=5.01D-06 Max=2.76D-04 NDo=     1
 LinEq1:  Iter=  9 NonCon=     1 RMS=2.24D-06 Max=1.94D-04 NDo=     1
 LinEq1:  Iter= 10 NonCon=     1 RMS=9.77D-07 Max=4.82D-05 NDo=     1
 LinEq1:  Iter= 11 NonCon=     1 RMS=3.59D-07 Max=1.87D-05 NDo=     1
 LinEq1:  Iter= 12 NonCon=     1 RMS=1.09D-07 Max=7.42D-06 NDo=     1
 LinEq1:  Iter= 13 NonCon=     1 RMS=5.86D-08 Max=4.86D-06 NDo=     1
 LinEq1:  Iter= 14 NonCon=     1 RMS=2.50D-08 Max=2.49D-06 NDo=     1
 LinEq1:  Iter= 15 NonCon=     1 RMS=1.10D-08 Max=8.97D-07 NDo=     1
 LinEq1:  Iter= 16 NonCon=     1 RMS=5.45D-09 Max=3.83D-07 NDo=     1
 LinEq1:  Iter= 17 NonCon=     1 RMS=2.02D-09 Max=1.27D-07 NDo=     1
 LinEq1:  Iter= 18 NonCon=     1 RMS=8.11D-10 Max=4.68D-08 NDo=     1
 LinEq1:  Iter= 19 NonCon=     1 RMS=2.62D-10 Max=1.43D-08 NDo=     1
 LinEq1:  Iter= 20 NonCon=     1 RMS=1.43D-10 Max=6.01D-09 NDo=     1
 LinEq1:  Iter= 21 NonCon=     1 RMS=6.36D-11 Max=3.91D-09 NDo=     1
 LinEq1:  Iter= 22 NonCon=     0 RMS=2.02D-11 Max=9.03D-10 NDo=     1
 Linear equations converged to 1.000D-10 1.000D-09 after    22 iterations.
 PCM Corrected Linear-Response - Equilibrium solvation:
 Corrected transition energy               =    1.4571          eV
 Total energy after correction             = -967.803368354     a.u.
 NEqPCM:  Using non-equilibrium solvation (IEInf=1, Eps=  24.8520, EpsInf=   1.8526)
 Inv3:  Mode=1 IEnd=    20342448.
 Iteration    1 A*A^-1 deviation from unit magnitude is 4.66D-15 for   2604.
 Iteration    1 A*A^-1 deviation from orthogonality  is 1.81D-15 for    994    247.
 Iteration    1 A^-1*A deviation from unit magnitude is 4.88D-15 for   2604.
 Iteration    1 A^-1*A deviation from orthogonality  is 2.33D-15 for   2351   2288.
 End of Minotr F.D. properties file   721 does not exist.
 End of Minotr F.D. properties file   722 does not exist.
 End of Minotr F.D. properties file   788 does not exist.

 **********************************************************************

            Population analysis using the CI Density.

 **********************************************************************

 Orbital symmetries:
       Occupied  (A) (A) (A) (A) (A) (A) (A) (A) (A) (A) (A) (A)
                 (A) (A) (A) (A) (A) (A) (A) (A) (A) (A) (A) (A)
                 (A) (A) (A) (A) (A) (A) (A) (A) (A) (A) (A) (A)
                 (A) (A) (A) (A) (A) (A) (A) (A) (A) (A) (A) (A)
                 (A) (A) (A) (A) (A) (A) (A) (A) (A) (A) (A) (A)
                 (A) (A) (A) (A) (A) (A) (A) (A) (A) (A) (A) (A)
                 (A)
       Virtual   (A) (A) (A) (A) (A) (A) (A) (A) (A) (A) (A) (A)
                 (A) (A) (A) (A) (A) (A) (A) (A) (A) (A) (A) (A)
                 (A) (A) (A) (A) (A) (A) (A) (A) (A) (A) (A) (A)
                 (A) (A) (A) (A) (A) (A) (A) (A) (A) (A) (A) (A)
                 (A) (A) (A) (A) (A) (A) (A) (A) (A) (A) (A) (A)
                 (A) (A) (A) (A) (A) (A) (A) (A) (A) (A) (A) (A)
                 (A) (A) (A) (A) (A) (A) (A) (A) (A) (A) (A) (A)
                 (A) (A) (A) (A) (A) (A) (A) (A) (A) (A) (A) (A)
                 (A) (A) (A) (A) (A) (A) (A) (A) (A) (A) (A) (A)
                 (A) (A) (A) (A) (A) (A) (A) (A) (A) (A) (A) (A)
                 (A) (A) (A) (A) (A) (A) (A) (A) (A) (A) (A) (A)
                 (A) (A) (A) (A) (A) (A) (A) (A) (A) (A) (A) (A)
                 (A) (A) (A) (A) (A) (A) (A) (A) (A) (A) (A) (A)
                 (A) (A) (A) (A) (A) (A) (A) (A) (A) (A) (A) (A)
                 (A) (A) (A) (A) (A) (A) (A) (A) (A) (A) (A) (A)
                 (A) (A) (A) (A) (A) (A) (A) (A) (A) (A) (A) (A)
                 (A) (A) (A) (A) (A) (A) (A) (A) (A) (A) (A) (A)
                 (A) (A) (A) (A) (A) (A) (A) (A) (A) (A) (A) (A)
                 (A) (A) (A) (A) (A) (A) (A) (A) (A) (A) (A) (A)
                 (A) (A) (A) (A) (A) (A) (A) (A) (A) (A) (A) (A)
                 (A) (A) (A) (A) (A) (A) (A) (A) (A) (A) (A) (A)
                 (A) (A) (A) (A) (A) (A) (A) (A) (A) (A) (A) (A)
                 (A) (A) (A) (A) (A) (A) (A) (A) (A) (A) (A) (A)
                 (A) (A) (A) (A) (A) (A) (A) (A) (A) (A) (A) (A)
                 (A) (A) (A) (A) (A) (A) (A) (A) (A) (A) (A) (A)
                 (A) (A) (A) (A) (A) (A) (A) (A) (A) (A) (A) (A)
                 (A) (A) (A) (A) (A) (A) (A) (A) (A) (A) (A) (A)
                 (A) (A) (A) (A) (A) (A) (A) (A) (A) (A) (A) (A)
                 (A) (A) (A) (A) (A) (A) (A) (A) (A) (A) (A) (A)
                 (A) (A) (A) (A) (A) (A) (A) (A) (A) (A) (A) (A)
                 (A) (A) (A) (A) (A) (A) (A) (A) (A) (A) (A) (A)
                 (A) (A) (A) (A) (A) (A) (A) (A) (A) (A) (A) (A)
                 (A) (A) (A) (A) (A) (A) (A) (A) (A) (A) (A) (A)
                 (A) (A) (A) (A) (A) (A) (A) (A) (A) (A) (A) (A)
                 (A) (A) (A) (A) (A) (A) (A) (A) (A) (A) (A) (A)
                 (A) (A) (A) (A) (A) (A) (A) (A) (A) (A) (A) (A)
                 (A) (A) (A) (A) (A) (A) (A) (A) (A) (A) (A) (A)
                 (A) (A) (A) (A) (A) (A) (A) (A) (A) (A) (A) (A)
                 (A) (A) (A) (A) (A) (A) (A) (A) (A) (A) (A) (A)
                 (A) (A) (A) (A) (A) (A) (A) (A) (A) (A) (A) (A)
                 (A) (A) (A) (A) (A) (A) (A) (A) (A) (A) (A) (A)
                 (A) (A) (A) (A) (A) (A) (A) (A) (A) (A) (A) (A)
                 (A) (A) (A) (A) (A) (A) (A) (A) (A) (A) (A) (A)
                 (A) (A) (A) (A) (A) (A) (A) (A) (A) (A) (A) (A)
                 (A) (A) (A) (A) (A) (A) (A) (A) (A) (A) (A) (A)
                 (A) (A) (A) (A) (A) (A) (A) (A) (A) (A) (A) (A)
                 (A) (A) (A) (A) (A) (A) (A) (A) (A) (A) (A) (A)
                 (A) (A) (A) (A) (A) (A) (A) (A) (A) (A) (A) (A)
                 (A) (A) (A) (A) (A) (A) (A) (A) (A) (A) (A) (A)
                 (A) (A) (A) (A) (A) (A) (A) (A) (A) (A) (A) (A)
                 (A) (A) (A) (A) (A) (A) (A) (A) (A) (A) (A) (A)
                 (A) (A) (A) (A) (A) (A) (A) (A) (A) (A) (A) (A)
                 (A) (A) (A) (A) (A) (A) (A) (A) (A) (A) (A) (A)
                 (A) (A) (A) (A) (A) (A) (A) (A) (A) (A) (A) (A)
                 (A) (A)
 The electronic state is 1-A.
 Alpha  occ. eigenvalues --  -24.76233 -24.76107 -14.47221 -14.47221 -14.43827
 Alpha  occ. eigenvalues --  -10.36343 -10.33962 -10.33631 -10.33631 -10.33347
 Alpha  occ. eigenvalues --  -10.33347 -10.30709 -10.30708 -10.29900 -10.29709
 Alpha  occ. eigenvalues --  -10.29702 -10.29131 -10.29131 -10.28283 -10.28278
 Alpha  occ. eigenvalues --   -6.92920  -1.27451  -1.24140  -1.09480  -1.07550
 Alpha  occ. eigenvalues --   -1.03169  -0.95714  -0.91124  -0.89287  -0.87660
 Alpha  occ. eigenvalues --   -0.85076  -0.83153  -0.82300  -0.76127  -0.70955
 Alpha  occ. eigenvalues --   -0.70493  -0.70201  -0.67240  -0.67152  -0.67106
 Alpha  occ. eigenvalues --   -0.63335  -0.61901  -0.60648  -0.60093  -0.59608
 Alpha  occ. eigenvalues --   -0.57702  -0.55442  -0.53886  -0.53100  -0.52748
 Alpha  occ. eigenvalues --   -0.52347  -0.51412  -0.51248  -0.50997  -0.50662
 Alpha  occ. eigenvalues --   -0.49871  -0.48623  -0.48522  -0.47920  -0.47185
 Alpha  occ. eigenvalues --   -0.47022  -0.46906  -0.45528  -0.44799  -0.43703
 Alpha  occ. eigenvalues --   -0.42206  -0.40347  -0.37595  -0.34829  -0.34336
 Alpha  occ. eigenvalues --   -0.33691  -0.29335  -0.27099
 Alpha virt. eigenvalues --   -0.05700   0.05372   0.06553   0.08915   0.10251
 Alpha virt. eigenvalues --    0.12157   0.12853   0.12951   0.14131   0.14800
 Alpha virt. eigenvalues --    0.15233   0.15506   0.16067   0.16305   0.17195
 Alpha virt. eigenvalues --    0.17459   0.18132   0.18163   0.19388   0.20020
 Alpha virt. eigenvalues --    0.20334   0.21811   0.21878   0.22828   0.22942
 Alpha virt. eigenvalues --    0.23869   0.24490   0.24591   0.25009   0.25985
 Alpha virt. eigenvalues --    0.26668   0.27410   0.27565   0.27876   0.27992
 Alpha virt. eigenvalues --    0.29484   0.30552   0.30839   0.30846   0.31207
 Alpha virt. eigenvalues --    0.31705   0.32541   0.33463   0.34090   0.35579
 Alpha virt. eigenvalues --    0.35837   0.36134   0.36203   0.36503   0.36941
 Alpha virt. eigenvalues --    0.37462   0.38626   0.38838   0.38949   0.39095
 Alpha virt. eigenvalues --    0.39867   0.40416   0.40637   0.41158   0.41760
 Alpha virt. eigenvalues --    0.42053   0.42940   0.43887   0.43931   0.44037
 Alpha virt. eigenvalues --    0.44120   0.44583   0.44819   0.45374   0.46938
 Alpha virt. eigenvalues --    0.47067   0.47729   0.48365   0.48998   0.49099
 Alpha virt. eigenvalues --    0.49485   0.49822   0.50230   0.50403   0.50729
 Alpha virt. eigenvalues --    0.50826   0.51423   0.53164   0.53480   0.53648
 Alpha virt. eigenvalues --    0.54153   0.54200   0.55349   0.55372   0.55396
 Alpha virt. eigenvalues --    0.56147   0.56853   0.58140   0.58334   0.58791
 Alpha virt. eigenvalues --    0.58924   0.59632   0.60747   0.61136   0.62002
 Alpha virt. eigenvalues --    0.63474   0.63924   0.64692   0.65537   0.66969
 Alpha virt. eigenvalues --    0.67169   0.68099   0.68246   0.68335   0.68671
 Alpha virt. eigenvalues --    0.69372   0.70123   0.71462   0.71556   0.72173
 Alpha virt. eigenvalues --    0.72504   0.72794   0.74565   0.74657   0.76695
 Alpha virt. eigenvalues --    0.76754   0.77261   0.77638   0.78102   0.79027
 Alpha virt. eigenvalues --    0.79520   0.80194   0.80342   0.80542   0.82361
 Alpha virt. eigenvalues --    0.82890   0.83265   0.83407   0.83521   0.83988
 Alpha virt. eigenvalues --    0.84289   0.84865   0.85849   0.87048   0.88038
 Alpha virt. eigenvalues --    0.88804   0.89017   0.89571   0.90228   0.90564
 Alpha virt. eigenvalues --    0.91954   0.92617   0.93021   0.93099   0.95055
 Alpha virt. eigenvalues --    0.95444   0.95770   0.99426   0.99770   1.00757
 Alpha virt. eigenvalues --    1.03543   1.04198   1.04623   1.04658   1.05221
 Alpha virt. eigenvalues --    1.05453   1.05643   1.05957   1.07159   1.07433
 Alpha virt. eigenvalues --    1.07675   1.07943   1.08079   1.11138   1.11800
 Alpha virt. eigenvalues --    1.11848   1.12399   1.15240   1.15735   1.16393
 Alpha virt. eigenvalues --    1.17798   1.18678   1.18689   1.19323   1.20297
 Alpha virt. eigenvalues --    1.21703   1.21730   1.22599   1.23569   1.24052
 Alpha virt. eigenvalues --    1.25797   1.26005   1.27622   1.28432   1.29310
 Alpha virt. eigenvalues --    1.30012   1.31362   1.31741   1.33326   1.34375
 Alpha virt. eigenvalues --    1.34778   1.34840   1.36586   1.37207   1.37835
 Alpha virt. eigenvalues --    1.38293   1.41156   1.42631   1.43075   1.43596
 Alpha virt. eigenvalues --    1.44076   1.44353   1.45683   1.46586   1.46769
 Alpha virt. eigenvalues --    1.48260   1.49369   1.50292   1.51309   1.52884
 Alpha virt. eigenvalues --    1.54765   1.55055   1.55290   1.56116   1.56773
 Alpha virt. eigenvalues --    1.57321   1.57845   1.58368   1.59950   1.60031
 Alpha virt. eigenvalues --    1.60652   1.61787   1.62276   1.63071   1.64374
 Alpha virt. eigenvalues --    1.64397   1.65000   1.66244   1.67049   1.67583
 Alpha virt. eigenvalues --    1.69051   1.69881   1.69937   1.70363   1.71400
 Alpha virt. eigenvalues --    1.71579   1.72608   1.72959   1.73374   1.74679
 Alpha virt. eigenvalues --    1.75265   1.75650   1.76362   1.78814   1.79552
 Alpha virt. eigenvalues --    1.80010   1.82119   1.82549   1.82954   1.83300
 Alpha virt. eigenvalues --    1.86453   1.87218   1.87667   1.87992   1.88128
 Alpha virt. eigenvalues --    1.88252   1.88602   1.90452   1.90577   1.91670
 Alpha virt. eigenvalues --    1.92316   1.93671   1.94143   1.94890   1.98076
 Alpha virt. eigenvalues --    1.98235   1.98517   1.99465   2.00543   2.01212
 Alpha virt. eigenvalues --    2.02631   2.03960   2.05180   2.07496   2.08933
 Alpha virt. eigenvalues --    2.09062   2.09621   2.10834   2.11486   2.13035
 Alpha virt. eigenvalues --    2.14474   2.14939   2.17114   2.17537   2.18728
 Alpha virt. eigenvalues --    2.20377   2.20952   2.21691   2.22241   2.22538
 Alpha virt. eigenvalues --    2.24726   2.26145   2.26867   2.27241   2.27776
 Alpha virt. eigenvalues --    2.28920   2.29270   2.30107   2.31386   2.32374
 Alpha virt. eigenvalues --    2.34578   2.35277   2.35691   2.36612   2.37012
 Alpha virt. eigenvalues --    2.38391   2.38756   2.38907   2.42870   2.44193
 Alpha virt. eigenvalues --    2.44280   2.44725   2.47392   2.48846   2.49189
 Alpha virt. eigenvalues --    2.49321   2.50293   2.53134   2.54507   2.56726
 Alpha virt. eigenvalues --    2.57213   2.58001   2.59605   2.60429   2.61080
 Alpha virt. eigenvalues --    2.61713   2.62263   2.63142   2.64698   2.65378
 Alpha virt. eigenvalues --    2.66940   2.67835   2.68742   2.69327   2.69697
 Alpha virt. eigenvalues --    2.69944   2.70403   2.71647   2.72118   2.73376
 Alpha virt. eigenvalues --    2.73809   2.74240   2.75164   2.75516   2.75913
 Alpha virt. eigenvalues --    2.76097   2.76380   2.77117   2.79085   2.79333
 Alpha virt. eigenvalues --    2.80047   2.80081   2.82367   2.84008   2.84222
 Alpha virt. eigenvalues --    2.84380   2.84702   2.86175   2.87298   2.87561
 Alpha virt. eigenvalues --    2.87726   2.88010   2.88834   2.89971   2.90940
 Alpha virt. eigenvalues --    2.92115   2.93351   2.93436   2.93635   2.94515
 Alpha virt. eigenvalues --    2.95139   2.96890   2.97592   2.98355   2.99506
 Alpha virt. eigenvalues --    2.99536   2.99814   3.01376   3.02172   3.03635
 Alpha virt. eigenvalues --    3.04906   3.05087   3.05548   3.06193   3.06840
 Alpha virt. eigenvalues --    3.07760   3.08300   3.09070   3.10599   3.11944
 Alpha virt. eigenvalues --    3.12129   3.12998   3.13821   3.15379   3.15597
 Alpha virt. eigenvalues --    3.15769   3.16445   3.18442   3.18703   3.19009
 Alpha virt. eigenvalues --    3.19308   3.19501   3.21089   3.21183   3.21621
 Alpha virt. eigenvalues --    3.22593   3.22745   3.24455   3.25154   3.25805
 Alpha virt. eigenvalues --    3.26478   3.27109   3.27664   3.28543   3.29185
 Alpha virt. eigenvalues --    3.29938   3.30235   3.30772   3.31166   3.34273
 Alpha virt. eigenvalues --    3.35863   3.36096   3.36412   3.36475   3.36975
 Alpha virt. eigenvalues --    3.38543   3.39728   3.39877   3.40180   3.40824
 Alpha virt. eigenvalues --    3.41358   3.42660   3.43232   3.44494   3.44983
 Alpha virt. eigenvalues --    3.45828   3.46367   3.46735   3.46789   3.47885
 Alpha virt. eigenvalues --    3.49243   3.50487   3.50607   3.52407   3.53771
 Alpha virt. eigenvalues --    3.53835   3.54572   3.56236   3.56666   3.57088
 Alpha virt. eigenvalues --    3.57504   3.58476   3.60744   3.61084   3.61295
 Alpha virt. eigenvalues --    3.61361   3.62569   3.63162   3.63508   3.63636
 Alpha virt. eigenvalues --    3.67831   3.68853   3.69616   3.69763   3.70364
 Alpha virt. eigenvalues --    3.70457   3.72256   3.72916   3.74257   3.74996
 Alpha virt. eigenvalues --    3.76802   3.76906   3.78693   3.78722   3.80443
 Alpha virt. eigenvalues --    3.81769   3.83155   3.86778   3.87447   3.87579
 Alpha virt. eigenvalues --    3.88707   3.90017   3.91575   3.91786   3.95801
 Alpha virt. eigenvalues --    3.96421   3.97792   3.97923   4.03383   4.03858
 Alpha virt. eigenvalues --    4.05973   4.06624   4.07747   4.09363   4.10148
 Alpha virt. eigenvalues --    4.10317   4.12332   4.14910   4.15913   4.16051
 Alpha virt. eigenvalues --    4.16296   4.16770   4.17005   4.19257   4.20309
 Alpha virt. eigenvalues --    4.21745   4.22541   4.24847   4.26881   4.27326
 Alpha virt. eigenvalues --    4.28901   4.30276   4.30959   4.32157   4.32496
 Alpha virt. eigenvalues --    4.34296   4.34997   4.35369   4.35544   4.37915
 Alpha virt. eigenvalues --    4.39798   4.39878   4.40555   4.41749   4.42331
 Alpha virt. eigenvalues --    4.43603   4.46767   4.46936   4.49416   4.52069
 Alpha virt. eigenvalues --    4.58233   4.59117   4.60637   4.61720   4.63240
 Alpha virt. eigenvalues --    4.64375   4.69712   4.69890   4.70026   4.77188
 Alpha virt. eigenvalues --    4.77778   4.80342   4.80484   4.82912   4.83808
 Alpha virt. eigenvalues --    4.87361   4.88278   4.88800   4.89289   4.91066
 Alpha virt. eigenvalues --    4.91089   4.93981   4.95010   4.95204   4.97110
 Alpha virt. eigenvalues --    4.97284   5.00008   5.02891   5.05679   5.06957
 Alpha virt. eigenvalues --    5.08199   5.09444   5.10887   5.13442   5.16169
 Alpha virt. eigenvalues --    5.16636   5.16883   5.22720   5.24048   5.26020
 Alpha virt. eigenvalues --    5.27618   5.30287   5.31120   5.34399   5.35030
 Alpha virt. eigenvalues --    5.35471   5.39027   5.41431   5.46127   5.47332
 Alpha virt. eigenvalues --    5.48937   5.49643   5.50632   5.54311   5.56874
 Alpha virt. eigenvalues --    5.61219   5.63621   5.69329   5.72300   5.78285
 Alpha virt. eigenvalues --    5.89183   5.91623   5.92463   5.96550   5.97693
 Alpha virt. eigenvalues --    6.03189   6.05605   6.09693   6.12254   6.26336
 Alpha virt. eigenvalues --    6.98871   6.99036   7.01373   7.01583   7.04185
 Alpha virt. eigenvalues --    7.04189   7.10064   7.17917   7.23192   7.27993
 Alpha virt. eigenvalues --    7.29937   7.32055   7.40988   7.41330   8.49489
 Alpha virt. eigenvalues --    8.52681   8.63058   8.64842   8.87690   8.93064
 Alpha virt. eigenvalues --    8.96244   8.99241   8.99501   9.09201  15.87864
 Alpha virt. eigenvalues --   22.43872  22.45343  22.50871  22.69655  22.70777
 Alpha virt. eigenvalues --   22.76374  22.82397  22.84175  22.84539  22.87877
 Alpha virt. eigenvalues --   22.99932  23.12412  23.23707  23.36800  23.66466
 Alpha virt. eigenvalues --   32.20046  33.00001  33.05100  57.13617  57.35954
          Condensed to atoms (all electrons):
               1          2          3          4          5          6
     1  C    5.467417  -0.005492   0.193200   0.427698  -0.047013  -0.200515
     2  C   -0.005492   5.467539   0.192996   0.021183   0.002461  -0.004551
     3  C    0.193200   0.192996   5.772262  -0.117426   0.003673   0.006546
     4  C    0.427698   0.021183  -0.117426   5.297179   0.405406  -0.036303
     5  C   -0.047013   0.002461   0.003673   0.405406   5.106186   0.512404
     6  C   -0.200515  -0.004551   0.006546  -0.036303   0.512404   5.133968
     7  H    0.009195  -0.000003  -0.000155  -0.045320   0.447574  -0.042036
     8  C   -0.004547  -0.200538   0.006504  -0.000098   0.000071  -0.000534
     9  C    0.021188   0.427754  -0.117577   0.000303   0.000034  -0.000098
    10  C    0.002463  -0.047011   0.003722   0.000034  -0.000002   0.000071
    11  H   -0.000003   0.009196  -0.000155  -0.000001   0.000000  -0.000000
    12  N    0.395635  -0.014464  -0.027086  -0.101385  -0.096865   0.411593
    13  N   -0.014484   0.395593  -0.027048   0.000166  -0.000478   0.001137
    14  B   -0.092733  -0.092733   0.016197   0.004893  -0.008604  -0.024121
    15  F   -0.009142  -0.009154   0.005239   0.000243  -0.000392  -0.003324
    16  F   -0.010221  -0.010213   0.004420   0.000119   0.000295  -0.001217
    17  C   -0.183211  -0.183248   0.310645  -0.025864  -0.003729  -0.000322
    18  C    0.011121   0.011137  -0.123089   0.003063   0.000032  -0.000076
    19  C    0.009595   0.009685  -0.120574   0.002088   0.000174  -0.000128
    20  C   -0.001269  -0.001402  -0.009087  -0.002013  -0.000071   0.000011
    21  H    0.003848   0.003790  -0.005976   0.000888  -0.000022  -0.000000
    22  C   -0.001080  -0.000979  -0.009226  -0.001596  -0.000088   0.000016
    23  H    0.003846   0.003922  -0.005562   0.000672  -0.000013  -0.000002
    24  C    0.001016   0.001024   0.000466  -0.000132  -0.000007   0.000002
    25  H   -0.000040  -0.000039  -0.000214  -0.000000  -0.000001   0.000000
    26  H   -0.000048  -0.000049  -0.000248   0.000001  -0.000001   0.000000
    27  H   -0.000722  -0.045972  -0.010742  -0.000012   0.000001  -0.000002
    28  H    0.000240   0.003545  -0.001241  -0.000003   0.000002  -0.000022
    29  H   -0.045978  -0.000720  -0.010725   0.444709  -0.036489   0.007285
    30  H    0.003546   0.000240  -0.001239   0.008147  -0.033296   0.426439
    31  N   -0.000012  -0.000012   0.000032   0.000014   0.000000  -0.000000
    32  H   -0.000000  -0.000000   0.000001   0.000000  -0.000000  -0.000000
    33  H   -0.000000  -0.000000   0.000000   0.000000  -0.000000   0.000000
               7          8          9         10         11         12
     1  C    0.009195  -0.004547   0.021188   0.002463  -0.000003   0.395635
     2  C   -0.000003  -0.200538   0.427754  -0.047011   0.009196  -0.014464
     3  C   -0.000155   0.006504  -0.117577   0.003722  -0.000155  -0.027086
     4  C   -0.045320  -0.000098   0.000303   0.000034  -0.000001  -0.101385
     5  C    0.447574   0.000071   0.000034  -0.000002   0.000000  -0.096865
     6  C   -0.042036  -0.000534  -0.000098   0.000071  -0.000000   0.411593
     7  H    0.469070  -0.000000  -0.000001   0.000000  -0.000000   0.003740
     8  C   -0.000000   5.134004  -0.036256   0.512372  -0.042038   0.001137
     9  C   -0.000001  -0.036256   5.297363   0.405296  -0.045326   0.000166
    10  C    0.000000   0.512372   0.405296   5.106308   0.447582  -0.000478
    11  H   -0.000000  -0.042038  -0.045326   0.447582   0.469079   0.000009
    12  N    0.003740   0.001137   0.000166  -0.000478   0.000009   6.285212
    13  N    0.000009   0.411604  -0.101377  -0.096875   0.003740  -0.035979
    14  B   -0.000033  -0.024102   0.004891  -0.008607  -0.000033   0.345477
    15  F    0.000005  -0.003330   0.000238  -0.000395   0.000005  -0.044380
    16  F    0.000003  -0.001212   0.000122   0.000298   0.000003  -0.040496
    17  C    0.000023  -0.000323  -0.025891  -0.003728   0.000023   0.010716
    18  C   -0.000004  -0.000068   0.003113   0.000012  -0.000004  -0.000226
    19  C   -0.000004  -0.000133   0.002085   0.000187  -0.000004  -0.000199
    20  C    0.000001   0.000010  -0.001960  -0.000068   0.000001   0.000015
    21  H   -0.000000   0.000000   0.000859  -0.000023  -0.000000  -0.000023
    22  C    0.000001   0.000017  -0.001662  -0.000089   0.000001   0.000009
    23  H   -0.000000  -0.000002   0.000704  -0.000013  -0.000000  -0.000031
    24  C   -0.000000   0.000002  -0.000130  -0.000007  -0.000000  -0.000001
    25  H    0.000000   0.000000   0.000001  -0.000001   0.000000   0.000000
    26  H    0.000000   0.000000   0.000000  -0.000001   0.000000   0.000000
    27  H   -0.000000   0.007287   0.444720  -0.036502  -0.002428   0.000020
    28  H   -0.000000   0.426448   0.008151  -0.033302  -0.001534   0.000001
    29  H   -0.002427  -0.000002  -0.000012   0.000001  -0.000000   0.004069
    30  H   -0.001534  -0.000022  -0.000003   0.000002  -0.000000  -0.027872
    31  N    0.000000  -0.000000   0.000014   0.000000   0.000000  -0.000000
    32  H    0.000000  -0.000000   0.000000  -0.000000   0.000000  -0.000000
    33  H   -0.000000   0.000000   0.000000  -0.000000  -0.000000  -0.000000
              13         14         15         16         17         18
     1  C   -0.014484  -0.092733  -0.009142  -0.010221  -0.183211   0.011121
     2  C    0.395593  -0.092733  -0.009154  -0.010213  -0.183248   0.011137
     3  C   -0.027048   0.016197   0.005239   0.004420   0.310645  -0.123089
     4  C    0.000166   0.004893   0.000243   0.000119  -0.025864   0.003063
     5  C   -0.000478  -0.008604  -0.000392   0.000295  -0.003729   0.000032
     6  C    0.001137  -0.024121  -0.003324  -0.001217  -0.000322  -0.000076
     7  H    0.000009  -0.000033   0.000005   0.000003   0.000023  -0.000004
     8  C    0.411604  -0.024102  -0.003330  -0.001212  -0.000323  -0.000068
     9  C   -0.101377   0.004891   0.000238   0.000122  -0.025891   0.003113
    10  C   -0.096875  -0.008607  -0.000395   0.000298  -0.003728   0.000012
    11  H    0.003740  -0.000033   0.000005   0.000003   0.000023  -0.000004
    12  N   -0.035979   0.345477  -0.044380  -0.040496   0.010716  -0.000226
    13  N    6.285235   0.345511  -0.044373  -0.040492   0.010719  -0.000227
    14  B    0.345511   3.402950   0.372747   0.365628   0.013025   0.000154
    15  F   -0.044373   0.372747   9.163745  -0.035565   0.000161  -0.000003
    16  F   -0.040492   0.365628  -0.035565   9.158585   0.000053   0.000003
    17  C    0.010719   0.013025   0.000161   0.000053   5.529364   0.284941
    18  C   -0.000227   0.000154  -0.000003   0.000003   0.284941   5.198685
    19  C   -0.000199  -0.000059   0.000004  -0.000003   0.298106  -0.075310
    20  C    0.000015  -0.000001   0.000000   0.000000   0.063217   0.386356
    21  H   -0.000022  -0.000024  -0.000000  -0.000002  -0.059372   0.451988
    22  C    0.000010   0.000004   0.000000   0.000000   0.057223  -0.019223
    23  H   -0.000032  -0.000025  -0.000003  -0.000000  -0.059360   0.011508
    24  C   -0.000001   0.000015   0.000000   0.000000  -0.085786   0.052310
    25  H    0.000000   0.000000   0.000000  -0.000000   0.008572  -0.031492
    26  H    0.000000   0.000001  -0.000000   0.000000   0.008646  -0.003101
    27  H    0.004070   0.000611   0.000005   0.000006   0.003550   0.000641
    28  H   -0.027873  -0.001975  -0.000538   0.000871  -0.000022   0.000001
    29  H    0.000020   0.000611   0.000005   0.000006   0.003556   0.000621
    30  H    0.000001  -0.001978  -0.000546   0.000884  -0.000022   0.000001
    31  N   -0.000000   0.000000   0.000000   0.000000   0.003371  -0.006096
    32  H   -0.000000   0.000000   0.000000  -0.000000  -0.000002  -0.000524
    33  H   -0.000000   0.000000   0.000000   0.000000  -0.000003   0.001091
              19         20         21         22         23         24
     1  C    0.009595  -0.001269   0.003848  -0.001080   0.003846   0.001016
     2  C    0.009685  -0.001402   0.003790  -0.000979   0.003922   0.001024
     3  C   -0.120574  -0.009087  -0.005976  -0.009226  -0.005562   0.000466
     4  C    0.002088  -0.002013   0.000888  -0.001596   0.000672  -0.000132
     5  C    0.000174  -0.000071  -0.000022  -0.000088  -0.000013  -0.000007
     6  C   -0.000128   0.000011  -0.000000   0.000016  -0.000002   0.000002
     7  H   -0.000004   0.000001  -0.000000   0.000001  -0.000000  -0.000000
     8  C   -0.000133   0.000010   0.000000   0.000017  -0.000002   0.000002
     9  C    0.002085  -0.001960   0.000859  -0.001662   0.000704  -0.000130
    10  C    0.000187  -0.000068  -0.000023  -0.000089  -0.000013  -0.000007
    11  H   -0.000004   0.000001  -0.000000   0.000001  -0.000000  -0.000000
    12  N   -0.000199   0.000015  -0.000023   0.000009  -0.000031  -0.000001
    13  N   -0.000199   0.000015  -0.000022   0.000010  -0.000032  -0.000001
    14  B   -0.000059  -0.000001  -0.000024   0.000004  -0.000025   0.000015
    15  F    0.000004   0.000000  -0.000000   0.000000  -0.000003   0.000000
    16  F   -0.000003   0.000000  -0.000002   0.000000  -0.000000   0.000000
    17  C    0.298106   0.063217  -0.059372   0.057223  -0.059360  -0.085786
    18  C   -0.075310   0.386356   0.451988  -0.019223   0.011508   0.052310
    19  C    5.178920  -0.018550   0.011264   0.394803   0.451263   0.047872
    20  C   -0.018550   5.129553  -0.053449   0.002862  -0.003771   0.312309
    21  H    0.011264  -0.053449   0.450155  -0.003687   0.000016   0.010738
    22  C    0.394803   0.002862  -0.003687   5.126143  -0.053048   0.316521
    23  H    0.451263  -0.003771   0.000016  -0.053048   0.450218   0.010700
    24  C    0.047872   0.312309   0.010738   0.316521   0.010700   4.704533
    25  H   -0.003000   0.432656  -0.005934   0.007416   0.000002  -0.048775
    26  H   -0.031376   0.007515   0.000001   0.432622  -0.005946  -0.048875
    27  H    0.000531   0.000074   0.000137   0.000123   0.000125   0.000194
    28  H    0.000001   0.000000  -0.000000   0.000000  -0.000000   0.000000
    29  H    0.000532   0.000084   0.000140   0.000120   0.000121   0.000192
    30  H    0.000001   0.000000  -0.000000   0.000000  -0.000000   0.000000
    31  N   -0.006196  -0.035918  -0.000142  -0.036341  -0.000142   0.454800
    32  H    0.001092   0.006175   0.000007  -0.007663  -0.000020  -0.020083
    33  H   -0.000526  -0.007657  -0.000020   0.006173   0.000007  -0.020108
              25         26         27         28         29         30
     1  C   -0.000040  -0.000048  -0.000722   0.000240  -0.045978   0.003546
     2  C   -0.000039  -0.000049  -0.045972   0.003545  -0.000720   0.000240
     3  C   -0.000214  -0.000248  -0.010742  -0.001241  -0.010725  -0.001239
     4  C   -0.000000   0.000001  -0.000012  -0.000003   0.444709   0.008147
     5  C   -0.000001  -0.000001   0.000001   0.000002  -0.036489  -0.033296
     6  C    0.000000   0.000000  -0.000002  -0.000022   0.007285   0.426439
     7  H    0.000000   0.000000  -0.000000  -0.000000  -0.002427  -0.001534
     8  C    0.000000   0.000000   0.007287   0.426448  -0.000002  -0.000022
     9  C    0.000001   0.000000   0.444720   0.008151  -0.000012  -0.000003
    10  C   -0.000001  -0.000001  -0.036502  -0.033302   0.000001   0.000002
    11  H    0.000000   0.000000  -0.002428  -0.001534  -0.000000  -0.000000
    12  N    0.000000   0.000000   0.000020   0.000001   0.004069  -0.027872
    13  N    0.000000   0.000000   0.004070  -0.027873   0.000020   0.000001
    14  B    0.000000   0.000001   0.000611  -0.001975   0.000611  -0.001978
    15  F    0.000000  -0.000000   0.000005  -0.000538   0.000005  -0.000546
    16  F   -0.000000   0.000000   0.000006   0.000871   0.000006   0.000884
    17  C    0.008572   0.008646   0.003550  -0.000022   0.003556  -0.000022
    18  C   -0.031492  -0.003101   0.000641   0.000001   0.000621   0.000001
    19  C   -0.003000  -0.031376   0.000531   0.000001   0.000532   0.000001
    20  C    0.432656   0.007515   0.000074   0.000000   0.000084   0.000000
    21  H   -0.005934   0.000001   0.000137  -0.000000   0.000140  -0.000000
    22  C    0.007416   0.432622   0.000123   0.000000   0.000120   0.000000
    23  H    0.000002  -0.005946   0.000125  -0.000000   0.000121  -0.000000
    24  C   -0.048775  -0.048875   0.000194   0.000000   0.000192   0.000000
    25  H    0.438819  -0.000054  -0.000003  -0.000000  -0.000003  -0.000000
    26  H   -0.000054   0.439203  -0.000002  -0.000000  -0.000002  -0.000000
    27  H   -0.000003  -0.000002   0.459281  -0.000033  -0.000000  -0.000000
    28  H   -0.000000  -0.000000  -0.000033   0.443299  -0.000000  -0.000001
    29  H   -0.000003  -0.000002  -0.000000  -0.000000   0.459260  -0.000033
    30  H   -0.000000  -0.000000  -0.000000  -0.000001  -0.000033   0.443292
    31  N    0.001538   0.001521  -0.000014  -0.000000  -0.000014  -0.000000
    32  H   -0.000057   0.001994  -0.000000  -0.000000  -0.000000  -0.000000
    33  H    0.001975  -0.000057  -0.000000  -0.000000  -0.000000  -0.000000
              31         32         33
     1  C   -0.000012  -0.000000  -0.000000
     2  C   -0.000012  -0.000000  -0.000000
     3  C    0.000032   0.000001   0.000000
     4  C    0.000014   0.000000   0.000000
     5  C    0.000000  -0.000000  -0.000000
     6  C   -0.000000  -0.000000   0.000000
     7  H    0.000000   0.000000  -0.000000
     8  C   -0.000000  -0.000000   0.000000
     9  C    0.000014   0.000000   0.000000
    10  C    0.000000  -0.000000  -0.000000
    11  H    0.000000   0.000000  -0.000000
    12  N   -0.000000  -0.000000  -0.000000
    13  N   -0.000000  -0.000000  -0.000000
    14  B    0.000000   0.000000   0.000000
    15  F    0.000000   0.000000   0.000000
    16  F    0.000000  -0.000000   0.000000
    17  C    0.003371  -0.000002  -0.000003
    18  C   -0.006096  -0.000524   0.001091
    19  C   -0.006196   0.001092  -0.000526
    20  C   -0.035918   0.006175  -0.007657
    21  H   -0.000142   0.000007  -0.000020
    22  C   -0.036341  -0.007663   0.006173
    23  H   -0.000142  -0.000020   0.000007
    24  C    0.454800  -0.020083  -0.020108
    25  H    0.001538  -0.000057   0.001975
    26  H    0.001521   0.001994  -0.000057
    27  H   -0.000014  -0.000000  -0.000000
    28  H   -0.000000  -0.000000  -0.000000
    29  H   -0.000014  -0.000000  -0.000000
    30  H   -0.000000  -0.000000  -0.000000
    31  N    6.245688   0.362282   0.362309
    32  H    0.362282   0.330420  -0.017477
    33  H    0.362309  -0.017477   0.330497
 Mulliken charges:
               1
     1  C    0.066499
     2  C    0.066513
     3  C    0.071466
     4  C   -0.286656
     5  C   -0.251243
     6  C   -0.186220
     7  H    0.161898
     8  C   -0.186250
     9  C   -0.286711
    10  C   -0.251246
    11  H    0.161887
    12  N   -0.068314
    13  N   -0.068372
    14  B    0.382312
    15  F   -0.391252
    16  F   -0.391877
    17  C    0.024970
    18  C   -0.157340
    19  C   -0.151946
    20  C   -0.205637
    21  H    0.194863
    22  C   -0.209382
    23  H    0.194864
    24  C    0.311213
    25  H    0.198634
    26  H    0.198255
    27  H    0.175053
    28  H    0.183985
    29  H    0.175073
    30  H    0.183993
    31  N   -0.346684
    32  H    0.343857
    33  H    0.343795
 Sum of Mulliken charges =  -0.00000
 Mulliken charges with hydrogens summed into heavy atoms:
               1
     1  C    0.066499
     2  C    0.066513
     3  C    0.071466
     4  C   -0.111584
     5  C   -0.089346
     6  C   -0.002227
     8  C   -0.002265
     9  C   -0.111658
    10  C   -0.089359
    12  N   -0.068314
    13  N   -0.068372
    14  B    0.382312
    15  F   -0.391252
    16  F   -0.391877
    17  C    0.024970
    18  C    0.037523
    19  C    0.042918
    20  C   -0.007003
    22  C   -0.011127
    24  C    0.311213
    31  N    0.340967
 Electronic spatial extent (au):  <R**2>=           6185.4510
 Charge=              0.0000 electrons
 Dipole moment (field-independent basis, Debye):
    X=             30.3038    Y=              0.0020    Z=             -0.1935  Tot=             30.3044
 Quadrupole moment (field-independent basis, Debye-Ang):
   XX=            -43.4831   YY=           -125.3132   ZZ=           -117.2025
   XY=             -0.0090   XZ=              1.4372   YZ=             -0.0924
 Traceless Quadrupole moment (field-independent basis, Debye-Ang):
   XX=             51.8498   YY=            -29.9803   ZZ=            -21.8695
   XY=             -0.0090   XZ=              1.4372   YZ=             -0.0924
 Octapole moment (field-independent basis, Debye-Ang**2):
  XXX=            741.1275  YYY=              0.0084  ZZZ=              1.6551  XYY=            -15.9599
  XXY=             -0.0214  XXZ=              0.7084  XZZ=             71.4648  YZZ=              0.0018
  YYZ=             -0.5357  XYZ=             -0.3680
 Hexadecapole moment (field-independent basis, Debye-Ang**3):
 XXXX=          -2005.2982 YYYY=          -2083.6213 ZZZZ=           -424.1780 XXXY=             -0.3028
 XXXZ=             21.0683 YYYX=             -0.0162 YYYZ=              0.0989 ZZZX=              4.8180
 ZZZY=             -0.6908 XXYY=          -1241.4297 XXZZ=           -838.8439 YYZZ=           -512.9224
 XXYZ=             -1.5392 YYXZ=             -0.0535 ZZXY=             -0.0149
 N-N= 1.580247976757D+03 E-N=-5.424996435799D+03  KE= 9.626948245303D+02
 Unable to Open any file for archive entry.
 1\1\GINC-X1001C4S2B0N1\SP\RwB97XD TD-FC\def2TZVP\C15H12B1F2N3\1008721\
 07-Oct-2025\0\\# wb97xd/def2tzvp geom=check guess=read TD=(Read, NStat
 es=3, Root=1) SCRF=(SMD, solvent=ethanol, CorrectedLR, NonEq=Save)\\BD
 P-NH2_ethanol_wb97xd_wb97xd_wb97xd\\0,1\C,0,-0.6195392251,1.2306404784
 ,-0.0247943337\C,0,-0.6192976141,-1.2305502761,-0.0273800669\C,0,0.092
 8558543,0.0001037424,-0.0152652153\C,0,-0.169925375,2.5707064317,-0.04
 86926119\C,0,-1.3219123551,3.391895511,-0.0642416426\C,0,-2.4272945762
 ,2.5460845154,-0.0488310064\H,0,-1.3518566045,4.4809907644,-0.08751330
 58\C,0,-2.426766947,-2.5463557735,-0.0531627916\C,0,-0.1693938677,-2.5
 70492386,-0.0527674773\C,0,-1.3212018015,-3.3919072644,-0.0695629801\H
 ,0,-1.3509067997,-4.4809862332,-0.0938845174\N,0,-2.0089799456,1.24123
 50108,-0.0243482599\N,0,-2.0087381621,-1.2414376462,-0.0272312969\B,0,
 -2.9170257788,-0.000275362,0.0501683648\F,0,-3.6551387285,-0.001737188
 6,1.2569513762\F,0,-3.8481072288,0.0008788196,-1.0105848842\C,0,1.5748
 491484,0.0001863033,-0.0034085898\C,0,2.3121044559,0.0066098977,-1.221
 5358373\C,0,2.2890097006,-0.005924346,1.2284809622\C,0,3.6862848755,0.
 00741913,-1.2230919848\H,0,1.76768895,0.0115371803,-2.1675205964\C,0,3
 .6626687162,-0.0068146846,1.255797884\H,0,1.7267574074,-0.010643926,2.
 1639733016\C,0,4.3965553808,0.0001341594,0.0232798183\H,0,4.2547543398
 ,0.013334055,-2.1551421297\H,0,4.2143005678,-0.0125301399,2.1979861809
 \H,0,0.8714081908,-2.8901129017,-0.0633114157\H,0,-3.4878452376,-2.792
 4096843,-0.0571833295\H,0,0.8708021012,2.8905545604,-0.0596302346\H,0,
 -3.488428073,2.7918959014,-0.053118952\N,0,5.7264072581,-0.0002037485,
 0.0368828202\H,0,6.24205429,-0.0055842195,0.9156343903\H,0,6.260460083
 6,0.0048803195,-0.8308046386\\Version=ES64L-G16RevC.01\State=1-A\HF=-9
 67.8569164\RMSD=1.210e-09\Dipole=11.9224447,0.0010947,-0.076121\Quadru
 pole=38.5490527,-22.2895888,-16.2594639,-0.0051028,1.0685007,-0.068681
 9\PG=C01 [X(C15H12B1F2N3)]\\@
 The archive entry for this job was punched.


 10 WHATSOEVER THY HAND FINDETH TO DO, DO IT WITH THY  
 MIGHT. FOR THERE IS NO WORK, NOR DEVICE, NOR KNOWLEDGE, NOR  
 WISDOM, IN THE GRAVE, WHITHER THOU GOEST.                    
 11 I RETURNED AND SAW UNDER THE SUN, THAT THE RACE IS NOT TO 
 THE SWIFT, NOR THE BATTLE TO THE STRONG, NEITHER YET BREAD TO
 THE WISE, NOR YET RICHES TO MEN OF UNDERSTANDING, NOR YET    
 FAVOR TO MEN OF SKILL. BUT TIME AND CHANCE HAPPEN TO THEM ALL.
 12 FOR MAN ALSO KNOWETH NOT HIS TIME. AS THE FISHES   
 THAT ARE TAKEN IN AN EVIL NET, AND AS THE BIRDS THAT ARE     
 CAUGHT IN THE SNARE. SO ARE THE SONS OF MEN SNARED IN AN EVIL
 TIME, WHEN IT FALLETH SUDDENLY UPON THEM.
                                         ECCLESIASTES 9
 Job cpu time:       1 days 11 hours 10 minutes 54.2 seconds.
 Elapsed time:       0 days  1 hours  6 minutes 34.7 seconds.
 File lengths (MBytes):  RWF=   1506 Int=      0 D2E=      0 Chk=     91 Scr=      1
 Normal termination of Gaussian 16 at Tue Oct  7 11:59:57 2025.
