 Entering Gaussian System, Link 0=g16
 Initial command:
 /home/users/sutd/1008721/g16/l1.exe "/home/users/sutd/1008721/scratch/g16/scratch/Gau-100204.inp" -scrdir="/home/users/sutd/1008721/scratch/g16/scratch/"
 Entering Link 1 = /home/users/sutd/1008721/g16/l1.exe PID=    100206.
  
 Copyright (c) 1988-2019, Gaussian, Inc.  All Rights Reserved.
  
 This is part of the Gaussian(R) 16 program.  It is based on
 the Gaussian(R) 09 system (copyright 2009, Gaussian, Inc.),
 the Gaussian(R) 03 system (copyright 2003, Gaussian, Inc.),
 the Gaussian(R) 98 system (copyright 1998, Gaussian, Inc.),
 the Gaussian(R) 94 system (copyright 1995, Gaussian, Inc.),
 the Gaussian 92(TM) system (copyright 1992, Gaussian, Inc.),
 the Gaussian 90(TM) system (copyright 1990, Gaussian, Inc.),
 the Gaussian 88(TM) system (copyright 1988, Gaussian, Inc.),
 the Gaussian 86(TM) system (copyright 1986, Carnegie Mellon
 University), and the Gaussian 82(TM) system (copyright 1983,
 Carnegie Mellon University). Gaussian is a federally registered
 trademark of Gaussian, Inc.
  
 This software contains proprietary and confidential information,
 including trade secrets, belonging to Gaussian, Inc.
  
 This software is provided under written license and may be
 used, copied, transmitted, or stored only in accord with that
 written license.
  
 The following legend is applicable only to US Government
 contracts under FAR:
  
                    RESTRICTED RIGHTS LEGEND
  
 Use, reproduction and disclosure by the US Government is
 subject to restrictions as set forth in subparagraphs (a)
 and (c) of the Commercial Computer Software - Restricted
 Rights clause in FAR 52.227-19.
  
 Gaussian, Inc.
 340 Quinnipiac St., Bldg. 40, Wallingford CT 06492
  
  
 ---------------------------------------------------------------
 Warning -- This program may not be used in any manner that
 competes with the business of Gaussian, Inc. or will provide
 assistance to any competitor of Gaussian, Inc.  The licensee
 of this program is prohibited from giving any competitor of
 Gaussian, Inc. access to this program.  By using this program,
 the user acknowledges that Gaussian, Inc. is engaged in the
 business of creating and licensing software in the field of
 computational chemistry and represents and warrants to the
 licensee that it is not a competitor of Gaussian, Inc. and that
 it will not use this program in any manner prohibited above.
 ---------------------------------------------------------------
  

 Cite this work as:
 Gaussian 16, Revision C.01,
 M. J. Frisch, G. W. Trucks, H. B. Schlegel, G. E. Scuseria, 
 M. A. Robb, J. R. Cheeseman, G. Scalmani, V. Barone, 
 G. A. Petersson, H. Nakatsuji, X. Li, M. Caricato, A. V. Marenich, 
 J. Bloino, B. G. Janesko, R. Gomperts, B. Mennucci, H. P. Hratchian, 
 J. V. Ortiz, A. F. Izmaylov, J. L. Sonnenberg, D. Williams-Young, 
 F. Ding, F. Lipparini, F. Egidi, J. Goings, B. Peng, A. Petrone, 
 T. Henderson, D. Ranasinghe, V. G. Zakrzewski, J. Gao, N. Rega, 
 G. Zheng, W. Liang, M. Hada, M. Ehara, K. Toyota, R. Fukuda, 
 J. Hasegawa, M. Ishida, T. Nakajima, Y. Honda, O. Kitao, H. Nakai, 
 T. Vreven, K. Throssell, J. A. Montgomery, Jr., J. E. Peralta, 
 F. Ogliaro, M. J. Bearpark, J. J. Heyd, E. N. Brothers, K. N. Kudin, 
 V. N. Staroverov, T. A. Keith, R. Kobayashi, J. Normand, 
 K. Raghavachari, A. P. Rendell, J. C. Burant, S. S. Iyengar, 
 J. Tomasi, M. Cossi, J. M. Millam, M. Klene, C. Adamo, R. Cammi, 
 J. W. Ochterski, R. L. Martin, K. Morokuma, O. Farkas, 
 J. B. Foresman, and D. J. Fox, Gaussian, Inc., Wallingford CT, 2019.
 
 ******************************************
 Gaussian 16:  ES64L-G16RevC.01  3-Jul-2019
                 5-Feb-2026 
 ******************************************
 %nprocshared=32
 Will use up to   32 processors via shared memory.
 %mem=64GB
 %oldchk=01BDP-NH2_ethanol_wb97xd_wb97xd_wb97xd.chk
 %chk=02BDP-NH2_ethanol_wb97xd_wb97xd_wb97xd.chk
 Copying data from "01BDP-NH2_ethanol_wb97xd_wb97xd_wb97xd.chk" to current chk file "02BDP-NH2_ethanol_wb97xd_wb97xd_wb97xd.chk"
 IOpt=  2 FromEx=T IUOpen= 4 IOptOp= 5 NList=   0 IFRang= 0 IUIn= 4 IUOut= 2.
 ----------------------------------------------------------------------
 # td=(nstates=6) wb97xd/def2tzvp geom=check guess=read scrf=(SMD, solv
 ent=ethanol)
 ----------------------------------------------------------------------
 1/29=2,38=1,172=1/1;
 2/12=2,40=1/2;
 3/5=44,7=101,11=9,14=-4,25=1,30=1,70=32201,72=4,74=-58,116=-2/1,2,3,8;
 4/5=1/1;
 5/5=2,38=6,53=4/2;
 8/6=1,10=1,108=6/1;
 9/41=6,42=1,70=2/14;
 6/7=2,8=2,9=2,10=2/1;
 99/5=1,9=1/99;
 ------------------------------------
 BDP-NH2_ethanol_wb97xd_wb97xd_wb97xd
 ------------------------------------
 Structure from the checkpoint file:  "02BDP-NH2_ethanol_wb97xd_wb97xd_wb97xd.chk"
 Charge =  0 Multiplicity = 1
 Redundant internal coordinates found in file.  (old form).
 C,0,0.625275685,-1.2128190873,-0.0832037801
 C,0,0.6278562014,1.2166982343,0.0512962516
 C,0,-0.0905361151,0.002397902,-0.0095930995
 C,0,0.1725289992,-2.5407430983,-0.2598517274
 C,0,1.3006139792,-3.3542754325,-0.3216725766
 C,0,2.4125415017,-2.5083393033,-0.2006247532
 H,0,1.331473642,-4.4338758655,-0.4541253295
 C,0,2.418720588,2.5105776135,0.124998265
 C,0,0.1795260012,2.5487511005,0.2073078193
 C,0,1.3097043485,3.3610332681,0.2406550113
 H,0,1.3437629052,4.4432124546,0.3491234486
 N,0,2.0126008996,-1.2373152943,-0.0607775982
 N,0,2.0151465594,1.2377957484,0.0145446982
 B,0,2.9420231115,-0.0019028311,0.0071488297
 F,0,3.7099877557,-0.0321021272,1.1741287045
 F,0,3.7884720619,0.0256044535,-1.1028039209
 C,0,-1.5562888389,0.0020305537,0.000082175
 C,0,-2.2924847543,0.8581105796,-0.8421346991
 C,0,-2.2779060775,-0.8570428334,0.8518529085
 C,0,-3.6763305988,0.8518911555,-0.8438693432
 H,0,-1.7659801258,1.5116539363,-1.5410730297
 C,0,-3.6615389545,-0.8525566617,0.8759497025
 H,0,-1.7392204944,-1.5139523015,1.538239247
 C,0,-4.3977922944,0.0011179901,0.0237801001
 H,0,-4.2231298573,1.5065599199,-1.5271135692
 H,0,-4.1963599189,-1.5105617432,1.5654089965
 H,0,-0.8573424091,2.8642884272,0.3009841476
 H,0,3.4786338986,2.7641212636,0.1318660952
 H,0,-0.8660844974,-2.851389824,-0.3510853475
 H,0,3.4717817751,-2.7638033683,-0.221451716
 N,0,-5.7562262712,0.0249296992,0.0593092343
 H,0,-6.2517047277,-0.7173039906,0.5373188997
 H,0,-6.2618859779,0.5027124621,-0.6761330445
 Recover connectivity data from disk.
                           ----------------------------
                           !    Current Parameters    !
                           ! (Angstroms and Degrees)  !
 --------------------------                            --------------------------
 ! Name  Definition              Value                                          !
 --------------------------------------------------------------------------------
 ! R1    R(1,3)                  1.4123                                         !
 ! R2    R(1,4)                  1.4141                                         !
 ! R3    R(1,12)                 1.3877                                         !
 ! R4    R(2,3)                  1.4122                                         !
 ! R5    R(2,9)                  1.4141                                         !
 ! R6    R(2,13)                 1.3879                                         !
 ! R7    R(3,17)                 1.4658                                         !
 ! R8    R(4,5)                  1.3922                                         !
 ! R9    R(4,29)                 1.0879                                         !
 ! R10   R(5,6)                  1.4024                                         !
 ! R11   R(5,7)                  1.0881                                         !
 ! R12   R(6,12)                 1.3398                                         !
 ! R13   R(6,30)                 1.0898                                         !
 ! R14   R(8,10)                 1.4023                                         !
 ! R15   R(8,13)                 1.3398                                         !
 ! R16   R(8,28)                 1.0898                                         !
 ! R17   R(9,10)                 1.3922                                         !
 ! R18   R(9,27)                 1.0879                                         !
 ! R19   R(10,11)                1.0881                                         !
 ! R20   R(12,14)                1.5475                                         !
 ! R21   R(13,14)                1.5479                                         !
 ! R22   R(14,15)                1.3973                                         !
 ! R23   R(14,16)                1.3961                                         !
 ! R24   R(17,18)                1.4086                                         !
 ! R25   R(17,19)                1.4086                                         !
 ! R26   R(18,20)                1.3839                                         !
 ! R27   R(18,21)                1.0922                                         !
 ! R28   R(19,22)                1.3838                                         !
 ! R29   R(19,23)                1.0922                                         !
 ! R30   R(20,24)                1.4132                                         !
 ! R31   R(20,25)                1.0929                                         !
 ! R32   R(22,24)                1.4132                                         !
 ! R33   R(22,26)                1.0929                                         !
 ! R34   R(24,31)                1.3591                                         !
 ! R35   R(31,32)                1.0124                                         !
 ! R36   R(31,33)                1.0123                                         !
 ! A1    A(3,1,4)              130.7135                                         !
 ! A2    A(3,1,12)             121.4025                                         !
 ! A3    A(4,1,12)             107.7898                                         !
 ! A4    A(3,2,9)              130.8018                                         !
 ! A5    A(3,2,13)             121.3587                                         !
 ! A6    A(9,2,13)             107.788                                          !
 ! A7    A(1,3,2)              118.966                                          !
 ! A8    A(1,3,17)             120.4617                                         !
 ! A9    A(2,3,17)             120.5721                                         !
 ! A10   A(1,4,5)              107.1496                                         !
 ! A11   A(1,4,29)             125.7532                                         !
 ! A12   A(5,4,29)             127.0844                                         !
 ! A13   A(4,5,6)              106.6274                                         !
 ! A14   A(4,5,7)              127.456                                          !
 ! A15   A(6,5,7)              125.9097                                         !
 ! A16   A(5,6,12)             110.1564                                         !
 ! A17   A(5,6,30)             128.8732                                         !
 ! A18   A(12,6,30)            120.9651                                         !
 ! A19   A(10,8,13)            110.1638                                         !
 ! A20   A(10,8,28)            128.8666                                         !
 ! A21   A(13,8,28)            120.9625                                         !
 ! A22   A(2,9,10)             107.1496                                         !
 ! A23   A(2,9,27)             125.7962                                         !
 ! A24   A(10,9,27)            127.0455                                         !
 ! A25   A(8,10,9)             106.6293                                         !
 ! A26   A(8,10,11)            125.9163                                         !
 ! A27   A(9,10,11)            127.4491                                         !
 ! A28   A(1,12,6)             108.2694                                         !
 ! A29   A(1,12,14)            125.9479                                         !
 ! A30   A(6,12,14)            125.6381                                         !
 ! A31   A(2,13,8)             108.2605                                         !
 ! A32   A(2,13,14)            125.9068                                         !
 ! A33   A(8,13,14)            125.5107                                         !
 ! A34   A(12,14,13)           106.2573                                         !
 ! A35   A(12,14,15)           110.4564                                         !
 ! A36   A(12,14,16)           110.1796                                         !
 ! A37   A(13,14,15)           110.024                                          !
 ! A38   A(13,14,16)           110.5517                                         !
 ! A39   A(15,14,16)           109.3401                                         !
 ! A40   A(3,17,18)            121.2336                                         !
 ! A41   A(3,17,19)            121.092                                          !
 ! A42   A(18,17,19)           117.6743                                         !
 ! A43   A(17,18,20)           121.376                                          !
 ! A44   A(17,18,21)           119.627                                          !
 ! A45   A(20,18,21)           118.9439                                         !
 ! A46   A(17,19,22)           121.3828                                         !
 ! A47   A(17,19,23)           119.6145                                         !
 ! A48   A(22,19,23)           118.957                                          !
 ! A49   A(18,20,24)           120.8269                                         !
 ! A50   A(18,20,25)           119.8949                                         !
 ! A51   A(24,20,25)           119.277                                          !
 ! A52   A(19,22,24)           120.8221                                         !
 ! A53   A(19,22,26)           119.8896                                         !
 ! A54   A(24,22,26)           119.287                                          !
 ! A55   A(20,24,22)           117.8999                                         !
 ! A56   A(20,24,31)           121.0486                                         !
 ! A57   A(22,24,31)           121.0349                                         !
 ! A58   A(24,31,32)           119.2537                                         !
 ! A59   A(24,31,33)           119.2436                                         !
 ! A60   A(32,31,33)           116.3961                                         !
 ! D1    D(4,1,3,2)           -174.2732                                         !
 ! D2    D(4,1,3,17)             5.5795                                         !
 ! D3    D(12,1,3,2)             1.7408                                         !
 ! D4    D(12,1,3,17)         -178.4065                                         !
 ! D5    D(3,1,4,5)            177.3049                                         !
 ! D6    D(3,1,4,29)            -1.4641                                         !
 ! D7    D(12,1,4,5)             0.8773                                         !
 ! D8    D(12,1,4,29)         -177.8917                                         !
 ! D9    D(3,1,12,6)          -177.4487                                         !
 ! D10   D(3,1,12,14)           -1.6317                                         !
 ! D11   D(4,1,12,6)            -0.6208                                         !
 ! D12   D(4,1,12,14)          175.1962                                         !
 ! D13   D(9,2,3,1)           -175.8121                                         !
 ! D14   D(9,2,3,17)             4.3354                                         !
 ! D15   D(13,2,3,1)             1.2388                                         !
 ! D16   D(13,2,3,17)         -178.6137                                         !
 ! D17   D(3,2,9,10)           178.3104                                         !
 ! D18   D(3,2,9,27)            -0.6731                                         !
 ! D19   D(13,2,9,10)            0.9549                                         !
 ! D20   D(13,2,9,27)         -178.0286                                         !
 ! D21   D(3,2,13,8)          -178.3369                                         !
 ! D22   D(3,2,13,14)           -4.5825                                         !
 ! D23   D(9,2,13,8)            -0.6809                                         !
 ! D24   D(9,2,13,14)          173.0734                                         !
 ! D25   D(1,3,17,18)         -132.0658                                         !
 ! D26   D(1,3,17,19)           47.8441                                         !
 ! D27   D(2,3,17,18)           47.7845                                         !
 ! D28   D(2,3,17,19)         -132.3056                                         !
 ! D29   D(1,4,5,6)             -0.7899                                         !
 ! D30   D(1,4,5,7)           -179.8678                                         !
 ! D31   D(29,4,5,6)           177.9579                                         !
 ! D32   D(29,4,5,7)            -1.1201                                         !
 ! D33   D(4,5,6,12)             0.4261                                         !
 ! D34   D(4,5,6,30)          -178.7298                                         !
 ! D35   D(7,5,6,12)           179.5223                                         !
 ! D36   D(7,5,6,30)             0.3665                                         !
 ! D37   D(5,6,12,1)             0.1244                                         !
 ! D38   D(5,6,12,14)         -175.7089                                         !
 ! D39   D(30,6,12,1)          179.358                                          !
 ! D40   D(30,6,12,14)           3.5247                                         !
 ! D41   D(13,8,10,9)            0.4553                                         !
 ! D42   D(13,8,10,11)         179.6654                                         !
 ! D43   D(28,8,10,9)         -178.5638                                         !
 ! D44   D(28,8,10,11)           0.6463                                         !
 ! D45   D(10,8,13,2)            0.144                                          !
 ! D46   D(10,8,13,14)        -173.6414                                         !
 ! D47   D(28,8,13,2)          179.2533                                         !
 ! D48   D(28,8,13,14)           5.4679                                         !
 ! D49   D(2,9,10,8)            -0.8548                                         !
 ! D50   D(2,9,10,11)          179.951                                          !
 ! D51   D(27,9,10,8)          178.1122                                         !
 ! D52   D(27,9,10,11)          -1.082                                          !
 ! D53   D(1,12,14,13)          -1.1294                                         !
 ! D54   D(1,12,14,15)         118.1756                                         !
 ! D55   D(1,12,14,16)        -120.9155                                         !
 ! D56   D(6,12,14,13)         173.9815                                         !
 ! D57   D(6,12,14,15)         -66.7135                                         !
 ! D58   D(6,12,14,16)          54.1954                                         !
 ! D59   D(2,13,14,12)           4.2159                                         !
 ! D60   D(2,13,14,15)        -115.3715                                         !
 ! D61   D(2,13,14,16)         123.7595                                         !
 ! D62   D(8,13,14,12)         176.9243                                         !
 ! D63   D(8,13,14,15)          57.3368                                         !
 ! D64   D(8,13,14,16)         -63.5321                                         !
 ! D65   D(3,17,18,20)         179.425                                          !
 ! D66   D(3,17,18,21)           2.1054                                         !
 ! D67   D(19,17,18,20)         -0.4879                                         !
 ! D68   D(19,17,18,21)       -177.8074                                         !
 ! D69   D(3,17,19,22)         179.3187                                         !
 ! D70   D(3,17,19,23)           1.8044                                         !
 ! D71   D(18,17,19,22)         -0.7683                                         !
 ! D72   D(18,17,19,23)       -178.2826                                         !
 ! D73   D(17,18,20,24)          1.3114                                         !
 ! D74   D(17,18,20,25)       -178.3029                                         !
 ! D75   D(21,18,20,24)        178.6489                                         !
 ! D76   D(21,18,20,25)         -0.9654                                         !
 ! D77   D(17,19,22,24)          1.2057                                         !
 ! D78   D(17,19,22,26)       -178.3793                                         !
 ! D79   D(23,19,22,24)        178.7359                                         !
 ! D80   D(23,19,22,26)         -0.8491                                         !
 ! D81   D(18,20,24,22)         -0.8649                                         !
 ! D82   D(18,20,24,31)        177.6663                                         !
 ! D83   D(25,20,24,22)        178.7517                                         !
 ! D84   D(25,20,24,31)         -2.7171                                         !
 ! D85   D(19,22,24,20)         -0.3784                                         !
 ! D86   D(19,22,24,31)       -178.9098                                         !
 ! D87   D(26,22,24,20)        179.209                                          !
 ! D88   D(26,22,24,31)          0.6776                                         !
 ! D89   D(20,24,31,32)        167.2664                                         !
 ! D90   D(20,24,31,33)         13.424                                          !
 ! D91   D(22,24,31,32)        -14.2486                                         !
 ! D92   D(22,24,31,33)       -168.091                                          !
 --------------------------------------------------------------------------------
                          Input orientation:                          
 ---------------------------------------------------------------------
 Center     Atomic      Atomic             Coordinates (Angstroms)
 Number     Number       Type             X           Y           Z
 ---------------------------------------------------------------------
      1          6           0        0.625276   -1.212819   -0.083204
      2          6           0        0.627856    1.216698    0.051296
      3          6           0       -0.090536    0.002398   -0.009593
      4          6           0        0.172529   -2.540743   -0.259852
      5          6           0        1.300614   -3.354275   -0.321673
      6          6           0        2.412542   -2.508339   -0.200625
      7          1           0        1.331474   -4.433876   -0.454125
      8          6           0        2.418721    2.510578    0.124998
      9          6           0        0.179526    2.548751    0.207308
     10          6           0        1.309704    3.361033    0.240655
     11          1           0        1.343763    4.443212    0.349123
     12          7           0        2.012601   -1.237315   -0.060778
     13          7           0        2.015147    1.237796    0.014545
     14          5           0        2.942023   -0.001903    0.007149
     15          9           0        3.709988   -0.032102    1.174129
     16          9           0        3.788472    0.025604   -1.102804
     17          6           0       -1.556289    0.002031    0.000082
     18          6           0       -2.292485    0.858111   -0.842135
     19          6           0       -2.277906   -0.857043    0.851853
     20          6           0       -3.676331    0.851891   -0.843869
     21          1           0       -1.765980    1.511654   -1.541073
     22          6           0       -3.661539   -0.852557    0.875950
     23          1           0       -1.739220   -1.513952    1.538239
     24          6           0       -4.397792    0.001118    0.023780
     25          1           0       -4.223130    1.506560   -1.527114
     26          1           0       -4.196360   -1.510562    1.565409
     27          1           0       -0.857342    2.864288    0.300984
     28          1           0        3.478634    2.764121    0.131866
     29          1           0       -0.866084   -2.851390   -0.351085
     30          1           0        3.471782   -2.763803   -0.221452
     31          7           0       -5.756226    0.024930    0.059309
     32          1           0       -6.251705   -0.717304    0.537319
     33          1           0       -6.261886    0.502712   -0.676133
 ---------------------------------------------------------------------
                    Distance matrix (angstroms):
                    1          2          3          4          5
     1  C    0.000000
     2  C    2.433239   0.000000
     3  C    1.412288   1.412204   0.000000
     4  C    1.414060   3.797697   2.568930   0.000000
     5  C    2.258049   4.635246   3.646909   1.392204   0.000000
     6  C    2.210538   4.138172   3.550450   2.241030   1.402371
     7  H    3.318359   5.716600   4.679770   2.228194   1.088133
     8  C    4.138052   2.210600   3.550415   5.541600   5.987168
     9  C    3.799013   1.414109   2.569804   5.110894   6.031781
    10  C    4.636103   2.258085   3.647428   6.031139   6.738818
    11  H    5.717851   3.318376   4.680462   7.107621   7.826407
    12  N    1.387723   2.819975   2.441863   2.263718   2.248669
    13  N    2.819008   1.387937   2.441452   4.212824   4.659476
    14  B    2.615684   2.615780   3.032608   3.766576   3.747099
    15  F    3.534180   3.509956   3.980750   4.567625   4.367990
    16  F    3.546701   3.569334   4.030180   4.513508   4.268863
    17  C    2.498403   2.499706   1.465785   3.085786   4.419300
    18  C    3.657602   3.074930   2.504785   4.238815   5.561064
    19  C    3.070728   3.658517   2.503061   3.174172   4.518754
    20  C    4.831714   4.411398   3.778304   5.163794   6.537163
    21  H    3.907204   2.890171   2.725875   4.671324   5.879473
    22  C    4.407555   4.833299   3.777194   4.340518   5.684704
    23  H    2.882811   3.907749   2.722731   2.818194   4.010817
    24  C    5.168781   5.170642   4.307386   5.237303   6.621921
    25  H    5.743425   5.109546   4.652279   6.108063   7.456041
    26  H    5.104385   5.744871   4.650534   4.845621   6.097301
    27  H    4.355291   2.232199   2.979072   5.530781   6.611733
    28  H    4.899384   3.244679   4.515097   6.263015   6.510318
    29  H    2.231777   4.352368   2.976944   1.087908   2.224487
    30  H    3.244574   4.899663   4.515181   3.307008   2.252259
    31  N    6.501992   6.494373   5.666154   6.467973   7.833465
    32  H    6.922676   7.162747   6.227125   6.725414   8.045434
    33  H    7.122332   6.964731   6.227371   7.130050   8.496670
                    6          7          8          9         10
     6  C    0.000000
     7  H    2.222760   0.000000
     8  C    5.029473   7.052866   0.000000
     9  C    5.543188   7.107852   2.241032   0.000000
    10  C    5.988365   7.825842   1.402344   1.392199   0.000000
    11  H    7.054685   8.913364   2.222801   2.228125   1.088135
    12  N    1.339780   3.291908   3.774407   4.215013   4.661516
    13  N    3.773294   5.731921   1.339793   2.263905   2.248758
    14  B    2.570164   4.738041   2.569103   3.765274   3.745441
    15  F    3.115295   5.261573   3.038629   4.478806   4.259824
    16  F    3.021255   5.132698   3.091732   4.594252   4.367408
    17  C    4.700410   5.312508   4.702033   3.088977   4.422069
    18  C    5.820807   6.425632   5.085415   3.173394   4.518055
    19  C    5.082793   5.246612   5.824731   4.248981   5.571057
    20  C    6.984216   7.291731   6.390586   4.341882   5.686170
    21  H    5.951234   6.791539   4.613606   2.813788   4.006818
    22  C    6.387103   6.286901   6.988859   5.173950   6.547610
    23  H    4.609727   4.682375   5.956724   4.685992   5.894502
    24  C    7.261431   7.260995   7.264467   5.241752   6.626582
    25  H    7.868362   8.203274   6.917492   4.845385   6.097240
    26  H    6.913177   6.571243   7.874239   6.121343   7.470218
    27  H    6.309428   7.656651   3.299799   1.087858   2.224070
    28  H    5.389429   7.534245   1.089838   3.306991   2.252198
    29  H    3.299956   2.710008   6.306132   5.528709   6.608965
    30  H    1.089810   2.724738   5.389625   6.264664   6.511662
    31  N    8.556505   8.389282   8.544736   6.451723   7.816000
    32  H    8.878149   8.502968   9.260967   7.220578   8.596264
    33  H    9.194468   9.059708   8.945740   6.816049   8.144905
                   11         12         13         14         15
    11  H    0.000000
    12  N    5.734436   0.000000
    13  N    3.292020   2.476258   0.000000
    14  B    4.736078   1.547477   1.547904   0.000000
    15  F    5.129142   2.420466   2.414490   1.397327   0.000000
    16  F    5.253566   2.415472   2.421272   1.396147   2.279016
    17  C    5.315659   3.778446   3.779216   4.498319   5.395667
    18  C    5.243505   4.851298   4.408372   5.372241   6.394331
    19  C    6.439094   4.402948   4.849715   5.356533   6.053037
    20  C    6.286665   6.110807   5.768770   6.727243   7.707883
    21  H    4.673048   4.901610   4.097788   5.182001   6.304104
    22  C    7.305872   5.763797   6.110348   6.714571   7.423036
    23  H    6.812239   4.087731   4.897860   5.152143   5.658827
    24  C    7.266602   6.529472   6.531098   7.339835   8.189048
    25  H    6.567685   6.968740   6.431566   7.481232   8.520478
    26  H    8.223122   6.424200   6.967170   7.460612   8.052905
    27  H    2.709277   5.019024   3.313415   4.768288   5.478318
    28  H    2.724743   4.265895   2.117836   2.820354   2.993109
    29  H    7.654080   3.313057   5.015637   4.769653   5.587047
    30  H    7.536252   2.117827   4.265006   2.821524   3.076781
    31  N    8.367500   7.871617   7.865576   8.698447   9.531804
    32  H    9.184633   8.302221   8.510966   9.236748  10.005516
    33  H    8.626969   8.477824   8.338264   9.243022  10.156169
                   16         17         18         19         20
    16  F    0.000000
    17  C    5.457415   0.000000
    18  C    6.143212   1.408612   0.000000
    19  C    6.434337   1.408635   2.410717   0.000000
    20  C    7.514857   2.434973   1.383861   2.784155   0.000000
    21  H    5.766486   2.167508   1.092173   3.405714   2.137947
    22  C    7.758176   2.435065   2.784332   1.383850   2.421392
    23  H    6.316702   2.167394   3.405725   1.092171   3.876087
    24  C    8.263457   2.841602   2.432399   2.432296   1.413201
    25  H    8.158372   3.421692   2.148738   3.876854   1.092888
    26  H    8.557845   3.421719   3.877063   2.148654   3.414123
    27  H    5.622485   2.961687   2.718658   4.021164   3.647893
    28  H    3.019915   5.744298   6.155271   6.838784   7.470087
    29  H    5.523321   2.956638   4.004515   2.723549   4.674891
    30  H    2.942426   5.742857   6.835955   6.151961   8.034685
    31  N    9.615185   4.200417   3.674819   3.674876   2.413620
    32  H   10.200346   4.780481   4.478867   3.988676   3.317018
    33  H   10.070719   4.780229   3.988735   4.478367   2.614413
                   21         22         23         24         25
    21  H    0.000000
    22  C    3.876162   0.000000
    23  H    4.317079   2.138079   0.000000
    24  C    3.414223   1.413160   3.414239   0.000000
    25  H    2.457195   3.414019   4.968872   2.168440   0.000000
    26  H    4.968980   1.092867   2.457292   2.168495   4.320583
    27  H    2.459353   4.691379   4.634382   4.561729   4.063729
    28  H    5.645651   8.038413   6.892445   8.347692   7.978148
    29  H    4.611077   3.649043   2.473995   4.555248   5.625346
    30  H    6.888765   7.466018   5.640318   8.344766   8.896765
    31  N    4.549026   2.413421   4.548816   1.359107   2.657508
    32  H    5.423070   2.615707   4.690310   2.053495   3.650009
    33  H    4.688204   3.317758   5.424471   2.053368   2.426603
                   26         27         28         29         30
    26  H    0.000000
    27  H    5.646868   0.000000
    28  H    8.901320   4.340429   0.000000
    29  H    4.069583   5.752760   7.116445   0.000000
    30  H    7.972696   7.119668   5.539209   4.340687   0.000000
    31  N    2.656926   5.667400   9.632813   5.688156   9.644272
    32  H    2.431187   6.479414  10.342350   5.860758   9.965444
    33  H    3.652969   5.978369  10.032176   6.361630  10.277215
                   31         32         33
    31  N    0.000000
    32  H    1.012375   0.000000
    33  H    1.012346   1.720758   0.000000
 Stoichiometry    C15H12BF2N3
 Framework group  C1[X(C15H12BF2N3)]
 Deg. of freedom    93
 Full point group                 C1      NOp   1
 Largest Abelian subgroup         C1      NOp   1
 Largest concise Abelian subgroup C1      NOp   1
                         Standard orientation:                         
 ---------------------------------------------------------------------
 Center     Atomic      Atomic             Coordinates (Angstroms)
 Number     Number       Type             X           Y           Z
 ---------------------------------------------------------------------
      1          6           0        0.623950   -1.214325   -0.065594
      2          6           0        0.627556    1.216274    0.047662
      3          6           0       -0.091367    0.001912   -0.005223
      4          6           0        0.171021   -2.543476   -0.232271
      5          6           0        1.298817   -3.358185   -0.282863
      6          6           0        2.410823   -2.511880   -0.165166
      7          1           0        1.329485   -4.438921   -0.405755
      8          6           0        2.418946    2.509689    0.116571
      9          6           0        0.179491    2.549905    0.190383
     10          6           0        1.310047    3.361780    0.220743
     11          1           0        1.344385    4.444846    0.319867
     12          7           0        2.011169   -1.239445   -0.037899
     13          7           0        2.014983    1.236228    0.015783
     14          5           0        2.941108   -0.004036    0.022608
     15          9           0        3.704802   -0.024479    1.192598
     16          9           0        3.791607    0.013260   -1.084451
     17          6           0       -1.557145    0.002497   -0.000887
     18          6           0       -2.289738    0.851612   -0.853236
     19          6           0       -2.282393   -0.848666    0.855729
     20          6           0       -3.673572    0.846196   -0.859960
     21          1           0       -1.760286    1.498705   -1.555940
     22          6           0       -3.666101   -0.843150    0.874742
     23          1           0       -1.746618   -1.499864    1.549792
     24          6           0       -4.398716    0.003473    0.012462
     25          1           0       -4.217473    1.495186   -1.550892
     26          1           0       -4.203838   -1.494782    1.567976
     27          1           0       -0.857514    2.866863    0.277516
     28          1           0        3.478985    2.762656    0.125084
     29          1           0       -0.867447   -2.854294   -0.324569
     30          1           0        3.469973   -2.768143   -0.179898
     31          7           0       -5.757255    0.028398    0.042830
     32          1           0       -6.254933   -0.709333    0.525504
     33          1           0       -6.259937    0.500028   -0.698600
 ---------------------------------------------------------------------
 Rotational constants (GHZ):           0.5799246           0.2146276           0.1669170
 Standard basis: def2TZVP (5D, 7F)
 There are   828 symmetry adapted cartesian basis functions of A   symmetry.
 There are   723 symmetry adapted basis functions of A   symmetry.
   723 basis functions,  1167 primitive gaussians,   828 cartesian basis functions
    73 alpha electrons       73 beta electrons
       nuclear repulsion energy      1589.6986775573 Hartrees.
 NAtoms=   33 NActive=   33 NUniq=   33 SFac= 1.00D+00 NAtFMM=   60 NAOKFM=F Big=F
 Integral buffers will be    131072 words long.
 Raffenetti 1 integral format.
 Two-electron integral symmetry is turned on.
 Nuclear repulsion after empirical dispersion term =     1589.6733821276 Hartrees.
 ------------------------------------------------------------------------------
 Polarizable Continuum Model (PCM)
 =================================
 Model                : PCM.
 Atomic radii         : SMD-Coulomb.
 Polarization charges : Total charges.
 Charge compensation  : None.
 Solution method      : On-the-fly selection.
 Cavity type          : VdW (van der Waals Surface) (Alpha=1.000).
 Cavity algorithm     : GePol (No added spheres)
                        Default sphere list used, NSphG=   33.
                        Lebedev-Laikov grids with approx.  5.0 points / Ang**2.
                        Smoothing algorithm: York/Karplus (Gamma=1.0000).
                        Polarization charges: spherical gaussians, with
                                              point-specific exponents (IZeta= 3).
                        Self-potential: point-specific (ISelfS= 7).
                        Self-field    : sphere-specific E.n sum rule (ISelfD= 2).
 Solvent              : Ethanol, Eps=  24.852000 Eps(inf)=   1.852593
 ------------------------------------------------------------------------------
 ------------------------------------------------------------------------------
 Atomic radii for non-electrostatic terms: SMD-CDS.
 ------------------------------------------------------------------------------
 Nuclear repulsion after PCM non-electrostatic terms =     1589.6725754341 Hartrees.
 One-electron integrals computed using PRISM.
   1 Symmetry operations used in ECPInt.
 ECPInt:  NShTT=   39060 NPrTT=  121776 LenC2=   34375 LenP2D=   76749.
 LDataN:  DoStor=T MaxTD1= 6 Len=  172
 NBasis=   723 RedAO= T EigKep=  7.85D-06  NBF=   723
 NBsUse=   723 1.00D-06 EigRej= -1.00D+00 NBFU=   723
 Initial guess from the checkpoint file:  "02BDP-NH2_ethanol_wb97xd_wb97xd_wb97xd.chk"
 B after Tr=    -0.000000    0.000000   -0.000000
         Rot=    1.000000   -0.000000    0.000000   -0.000000 Ang=   0.00 deg.
 Requested convergence on RMS density matrix=1.00D-08 within 128 cycles.
 Requested convergence on MAX density matrix=1.00D-06.
 Requested convergence on             energy=1.00D-06.
 No special actions if energy rises.
 Inv3:  Mode=1 IEnd=    19722288.
 Iteration    1 A*A^-1 deviation from unit magnitude is 3.77D-15 for   2540.
 Iteration    1 A*A^-1 deviation from orthogonality  is 2.75D-15 for   2562    586.
 Iteration    1 A^-1*A deviation from unit magnitude is 4.00D-15 for   2544.
 Iteration    1 A^-1*A deviation from orthogonality  is 2.12D-15 for   2282    884.
 Error on total polarization charges =  0.04733
 SCF Done:  E(RwB97XD) =  -967.871438308     A.U. after    1 cycles
            NFock=  1  Conv=0.12D-08     -V/T= 2.0050
 SMD-CDS (non-electrostatic) energy       (kcal/mol) =      -0.51
 (included in total energy above)
 DoSCS=F DFT=T ScalE2(SS,OS)=  1.000000  1.000000
 ExpMin= 6.06D-02 ExpMax= 3.55D+04 ExpMxC= 1.21D+03 IAcc=3 IRadAn=         5 AccDes= 0.00D+00
 HarFok:  IExCor=  205 AccDes= 0.00D+00 IRadAn=         5 IDoV=-2 UseB2=F ITyADJ=14
 ICtDFT= 12500011 ScaDFX=  1.000000  1.000000  1.000000  1.000000
 GSVD:  LWork=        -609 too small for GESVD, short by        2520 words or        2520 for optimal perf.
 Range of M.O.s used for correlation:    22   723
 NBasis=   723 NAE=    73 NBE=    73 NFC=    21 NFV=     0
 NROrb=    702 NOA=    52 NOB=    52 NVA=   650 NVB=   650

 **** Warning!!: The largest alpha MO coefficient is  0.51659366D+02

 NEqPCM:  Using non-equilibrium solvation (IEInf=1, Eps=  24.8520, EpsInf=   1.8526)
 Inv3:  Mode=1 IEnd=    19722288.
 Iteration    1 A*A^-1 deviation from unit magnitude is 5.77D-15 for   2540.
 Iteration    1 A*A^-1 deviation from orthogonality  is 2.49D-15 for   2068   1377.
 Iteration    1 A^-1*A deviation from unit magnitude is 6.00D-15 for   2540.
 Iteration    1 A^-1*A deviation from orthogonality  is 1.43D-15 for   1014    227.
 Orbital symmetries:
       Occupied  (A) (A) (A) (A) (A) (A) (A) (A) (A) (A) (A) (A)
                 (A) (A) (A) (A) (A) (A) (A) (A) (A) (A) (A) (A)
                 (A) (A) (A) (A) (A) (A) (A) (A) (A) (A) (A) (A)
                 (A) (A) (A) (A) (A) (A) (A) (A) (A) (A) (A) (A)
                 (A) (A) (A) (A) (A) (A) (A) (A) (A) (A) (A) (A)
                 (A) (A) (A) (A) (A) (A) (A) (A) (A) (A) (A) (A)
                 (A)
       Virtual   (A) (A) (A) (A) (A) (A) (A) (A) (A) (A) (A) (A)
                 (A) (A) (A) (A) (A) (A) (A) (A) (A) (A) (A) (A)
                 (A) (A) (A) (A) (A) (A) (A) (A) (A) (A) (A) (A)
                 (A) (A) (A) (A) (A) (A) (A) (A) (A) (A) (A) (A)
                 (A) (A) (A) (A) (A) (A) (A) (A) (A) (A) (A) (A)
                 (A) (A) (A) (A) (A) (A) (A) (A) (A) (A) (A) (A)
                 (A) (A) (A) (A) (A) (A) (A) (A) (A) (A) (A) (A)
                 (A) (A) (A) (A) (A) (A) (A) (A) (A) (A) (A) (A)
                 (A) (A) (A) (A) (A) (A) (A) (A) (A) (A) (A) (A)
                 (A) (A) (A) (A) (A) (A) (A) (A) (A) (A) (A) (A)
                 (A) (A) (A) (A) (A) (A) (A) (A) (A) (A) (A) (A)
                 (A) (A) (A) (A) (A) (A) (A) (A) (A) (A) (A) (A)
                 (A) (A) (A) (A) (A) (A) (A) (A) (A) (A) (A) (A)
                 (A) (A) (A) (A) (A) (A) (A) (A) (A) (A) (A) (A)
                 (A) (A) (A) (A) (A) (A) (A) (A) (A) (A) (A) (A)
                 (A) (A) (A) (A) (A) (A) (A) (A) (A) (A) (A) (A)
                 (A) (A) (A) (A) (A) (A) (A) (A) (A) (A) (A) (A)
                 (A) (A) (A) (A) (A) (A) (A) (A) (A) (A) (A) (A)
                 (A) (A) (A) (A) (A) (A) (A) (A) (A) (A) (A) (A)
                 (A) (A) (A) (A) (A) (A) (A) (A) (A) (A) (A) (A)
                 (A) (A) (A) (A) (A) (A) (A) (A) (A) (A) (A) (A)
                 (A) (A) (A) (A) (A) (A) (A) (A) (A) (A) (A) (A)
                 (A) (A) (A) (A) (A) (A) (A) (A) (A) (A) (A) (A)
                 (A) (A) (A) (A) (A) (A) (A) (A) (A) (A) (A) (A)
                 (A) (A) (A) (A) (A) (A) (A) (A) (A) (A) (A) (A)
                 (A) (A) (A) (A) (A) (A) (A) (A) (A) (A) (A) (A)
                 (A) (A) (A) (A) (A) (A) (A) (A) (A) (A) (A) (A)
                 (A) (A) (A) (A) (A) (A) (A) (A) (A) (A) (A) (A)
                 (A) (A) (A) (A) (A) (A) (A) (A) (A) (A) (A) (A)
                 (A) (A) (A) (A) (A) (A) (A) (A) (A) (A) (A) (A)
                 (A) (A) (A) (A) (A) (A) (A) (A) (A) (A) (A) (A)
                 (A) (A) (A) (A) (A) (A) (A) (A) (A) (A) (A) (A)
                 (A) (A) (A) (A) (A) (A) (A) (A) (A) (A) (A) (A)
                 (A) (A) (A) (A) (A) (A) (A) (A) (A) (A) (A) (A)
                 (A) (A) (A) (A) (A) (A) (A) (A) (A) (A) (A) (A)
                 (A) (A) (A) (A) (A) (A) (A) (A) (A) (A) (A) (A)
                 (A) (A) (A) (A) (A) (A) (A) (A) (A) (A) (A) (A)
                 (A) (A) (A) (A) (A) (A) (A) (A) (A) (A) (A) (A)
                 (A) (A) (A) (A) (A) (A) (A) (A) (A) (A) (A) (A)
                 (A) (A) (A) (A) (A) (A) (A) (A) (A) (A) (A) (A)
                 (A) (A) (A) (A) (A) (A) (A) (A) (A) (A) (A) (A)
                 (A) (A) (A) (A) (A) (A) (A) (A) (A) (A) (A) (A)
                 (A) (A) (A) (A) (A) (A) (A) (A) (A) (A) (A) (A)
                 (A) (A) (A) (A) (A) (A) (A) (A) (A) (A) (A) (A)
                 (A) (A) (A) (A) (A) (A) (A) (A) (A) (A) (A) (A)
                 (A) (A) (A) (A) (A) (A) (A) (A) (A) (A) (A) (A)
                 (A) (A) (A) (A) (A) (A) (A) (A) (A) (A) (A) (A)
                 (A) (A) (A) (A) (A) (A) (A) (A) (A) (A) (A) (A)
                 (A) (A) (A) (A) (A) (A) (A) (A) (A) (A) (A) (A)
                 (A) (A) (A) (A) (A) (A) (A) (A) (A) (A) (A) (A)
                 (A) (A) (A) (A) (A) (A) (A) (A) (A) (A) (A) (A)
                 (A) (A) (A) (A) (A) (A) (A) (A) (A) (A) (A) (A)
                 (A) (A) (A) (A) (A) (A) (A) (A) (A) (A) (A) (A)
                 (A) (A) (A) (A) (A) (A) (A) (A) (A) (A) (A) (A)
                 (A) (A)
    24 initial guesses have been made.
 Convergence on wavefunction:    0.001000000000000
 Iteration     1 Dimension    24 NMult     0 NNew     24
 CISAX will form    24 AO SS matrices at one time.
 New state      6 was old state      7
 Iteration     2 Dimension    36 NMult    24 NNew     12
 New state      1 was old state      2
 New state      2 was old state      1
 New state      4 was old state      5
 New state      5 was old state      4
 Iteration     3 Dimension    48 NMult    36 NNew     12
 Iteration     4 Dimension    60 NMult    48 NNew     12
 Iteration     5 Dimension    72 NMult    60 NNew     12
 Iteration     6 Dimension    74 NMult    72 NNew      2
 ***********************************************************************
 Excited states from <AA,BB:AA,BB> singles matrix:
 ***********************************************************************
 
 Ground to excited state transition densities written to RWF  633
 Ground to excited state transition electric dipole moments (Au):
       state          X           Y           Z        Dip. S.      Osc.
         1         0.0023      2.7121      0.2071      7.3986      0.5400
         2        -2.4155      0.0037      0.0193      5.8351      0.4317
         3         0.0042      0.7559      0.1016      0.5818      0.0573
         4         0.7800     -0.0042      0.0025      0.6084      0.0643
         5        -0.0050     -0.2132     -0.0031      0.0455      0.0049
         6         0.0035      0.5464     -0.5486      0.5995      0.0711
 Ground to excited state transition velocity dipole moments (Au):
       state          X           Y           Z        Dip. S.      Osc.
         1        -0.0002     -0.2955     -0.0226      0.0878      0.5347
         2         0.2659     -0.0004     -0.0020      0.0707      0.4248
         3        -0.0006     -0.1118     -0.0152      0.0127      0.0575
         4        -0.1238      0.0007     -0.0004      0.0153      0.0644
         5         0.0008      0.0345     -0.0001      0.0012      0.0049
         6        -0.0006     -0.0997      0.0997      0.0199      0.0746
 Ground to excited state transition magnetic dipole moments (Au):
       state          X           Y           Z
         1        -0.0032     -0.0444      0.5695
         2        -0.0475     -0.0099      0.0075
         3        -0.0012      0.1565     -1.2938
         4         0.0393      0.0163      0.0062
         5         0.0033      0.3229      0.4587
         6        -0.0175      0.2024      0.1813
 Ground to excited state transition velocity quadrupole moments (Au):
       state          XX          YY          ZZ          XY          XZ          YZ
         1        -0.0055      0.0004      0.0020     -1.0130     -0.0385      0.0153
         2        -1.4747      0.6812     -0.0226      0.0133      0.0099      0.0906
         3         0.0027     -0.0043      0.0012      0.0323      0.0266      0.0034
         4        -0.3910      0.1162     -0.0031      0.0002     -0.0012      0.0236
         5         0.0066     -0.0037      0.0010     -0.0615      0.0937     -0.0015
         6        -0.0027     -0.0016      0.0012      0.5649     -0.6605     -0.0009
 <0|del|b> * <b|rxdel|0> + <0|del|b> * <b|delr+rdel|0>
 Rotatory Strengths (R) in cgs (10**-40 erg-esu-cm/Gauss)
       state          XX          YY          ZZ    R(velocity)    E-M Angle
         1        37.9138   -115.3530     79.1641      0.5749       89.91
         2        -0.1085     36.5508   -116.9661    -26.8413      165.52
         3        11.2278     48.3709    -48.9975      3.5337       89.14
         4         0.0197    -17.3778     -4.3116     -7.2233      155.80
         5        17.1390     -0.1397     31.3580     16.1191       55.07
         6       -23.1342    -76.0651     90.8823     -2.7723       93.12
 1/2[<0|r|b>*<b|rxdel|0> + (<0|rxdel|b>*<b|r|0>)*]
 Rotatory Strengths (R) in cgs (10**-40 erg-esu-cm/Gauss)
       state          XX          YY          ZZ     R(length)
         1         0.0053     85.1675    -83.4119      0.5870
         2       -81.1042      0.0262     -0.1024    -27.0601
         3         0.0037    -83.6517     92.9183      3.0901
         4       -21.6888      0.0487     -0.0111     -7.2171
         5         0.0118     48.6661      1.0012     16.5597
         6         0.0429    -78.1924     70.3423     -2.6024
  1/2[<0|del|b>*<b|r|0> + (<0|r|b>*<b|del|0>)*] (Au)
       state          X           Y           Z        Dip. S.   Osc.(frdel)
         1        -0.0000     -0.8013     -0.0047      0.8060      0.5373
         2        -0.6423     -0.0000     -0.0000      0.6423      0.4282
         3        -0.0000     -0.0845     -0.0015      0.0861      0.0574
         4        -0.0965     -0.0000     -0.0000      0.0965      0.0644
         5        -0.0000     -0.0074      0.0000      0.0074      0.0049
         6        -0.0000     -0.0545     -0.0547      0.1092      0.0728

 Excitation energies and oscillator strengths:
 
 Excited State   1:      Singlet-A      2.9794 eV  416.14 nm  f=0.5400  <S**2>=0.000
      72 -> 74         0.69737
 This state for optimization and/or second-order correction.
 Total Energy, E(TD-HF/TD-DFT) =  -967.761948469    
 Copying the excited state density for this state as the 1-particle RhoCI density.
 
 Excited State   2:      Singlet-A      3.0197 eV  410.59 nm  f=0.4317  <S**2>=0.000
      73 -> 74         0.68894
 
 Excited State   3:      Singlet-A      4.0187 eV  308.52 nm  f=0.0573  <S**2>=0.000
      70 -> 74        -0.30189
      71 -> 74         0.62961
 
 Excited State   4:      Singlet-A      4.3143 eV  287.38 nm  f=0.0643  <S**2>=0.000
      69 -> 74         0.69785
 
 Excited State   5:      Singlet-A      4.4166 eV  280.72 nm  f=0.0049  <S**2>=0.000
      70 -> 74         0.58184
      71 -> 74         0.26149
      73 -> 75        -0.27215
 
 Excited State   6:      Singlet-A      4.8381 eV  256.26 nm  f=0.0711  <S**2>=0.000
      70 -> 74         0.24892
      70 -> 76         0.10910
      71 -> 74         0.15810
      73 -> 75         0.62332
 SavETr:  write IOETrn=   770 NScale= 10 NData=  16 NLR=1 NState=    6 LETran=     118.

 **********************************************************************

            Population analysis using the SCF Density.

 **********************************************************************

 Orbital symmetries:
       Occupied  (A) (A) (A) (A) (A) (A) (A) (A) (A) (A) (A) (A)
                 (A) (A) (A) (A) (A) (A) (A) (A) (A) (A) (A) (A)
                 (A) (A) (A) (A) (A) (A) (A) (A) (A) (A) (A) (A)
                 (A) (A) (A) (A) (A) (A) (A) (A) (A) (A) (A) (A)
                 (A) (A) (A) (A) (A) (A) (A) (A) (A) (A) (A) (A)
                 (A) (A) (A) (A) (A) (A) (A) (A) (A) (A) (A) (A)
                 (A)
       Virtual   (A) (A) (A) (A) (A) (A) (A) (A) (A) (A) (A) (A)
                 (A) (A) (A) (A) (A) (A) (A) (A) (A) (A) (A) (A)
                 (A) (A) (A) (A) (A) (A) (A) (A) (A) (A) (A) (A)
                 (A) (A) (A) (A) (A) (A) (A) (A) (A) (A) (A) (A)
                 (A) (A) (A) (A) (A) (A) (A) (A) (A) (A) (A) (A)
                 (A) (A) (A) (A) (A) (A) (A) (A) (A) (A) (A) (A)
                 (A) (A) (A) (A) (A) (A) (A) (A) (A) (A) (A) (A)
                 (A) (A) (A) (A) (A) (A) (A) (A) (A) (A) (A) (A)
                 (A) (A) (A) (A) (A) (A) (A) (A) (A) (A) (A) (A)
                 (A) (A) (A) (A) (A) (A) (A) (A) (A) (A) (A) (A)
                 (A) (A) (A) (A) (A) (A) (A) (A) (A) (A) (A) (A)
                 (A) (A) (A) (A) (A) (A) (A) (A) (A) (A) (A) (A)
                 (A) (A) (A) (A) (A) (A) (A) (A) (A) (A) (A) (A)
                 (A) (A) (A) (A) (A) (A) (A) (A) (A) (A) (A) (A)
                 (A) (A) (A) (A) (A) (A) (A) (A) (A) (A) (A) (A)
                 (A) (A) (A) (A) (A) (A) (A) (A) (A) (A) (A) (A)
                 (A) (A) (A) (A) (A) (A) (A) (A) (A) (A) (A) (A)
                 (A) (A) (A) (A) (A) (A) (A) (A) (A) (A) (A) (A)
                 (A) (A) (A) (A) (A) (A) (A) (A) (A) (A) (A) (A)
                 (A) (A) (A) (A) (A) (A) (A) (A) (A) (A) (A) (A)
                 (A) (A) (A) (A) (A) (A) (A) (A) (A) (A) (A) (A)
                 (A) (A) (A) (A) (A) (A) (A) (A) (A) (A) (A) (A)
                 (A) (A) (A) (A) (A) (A) (A) (A) (A) (A) (A) (A)
                 (A) (A) (A) (A) (A) (A) (A) (A) (A) (A) (A) (A)
                 (A) (A) (A) (A) (A) (A) (A) (A) (A) (A) (A) (A)
                 (A) (A) (A) (A) (A) (A) (A) (A) (A) (A) (A) (A)
                 (A) (A) (A) (A) (A) (A) (A) (A) (A) (A) (A) (A)
                 (A) (A) (A) (A) (A) (A) (A) (A) (A) (A) (A) (A)
                 (A) (A) (A) (A) (A) (A) (A) (A) (A) (A) (A) (A)
                 (A) (A) (A) (A) (A) (A) (A) (A) (A) (A) (A) (A)
                 (A) (A) (A) (A) (A) (A) (A) (A) (A) (A) (A) (A)
                 (A) (A) (A) (A) (A) (A) (A) (A) (A) (A) (A) (A)
                 (A) (A) (A) (A) (A) (A) (A) (A) (A) (A) (A) (A)
                 (A) (A) (A) (A) (A) (A) (A) (A) (A) (A) (A) (A)
                 (A) (A) (A) (A) (A) (A) (A) (A) (A) (A) (A) (A)
                 (A) (A) (A) (A) (A) (A) (A) (A) (A) (A) (A) (A)
                 (A) (A) (A) (A) (A) (A) (A) (A) (A) (A) (A) (A)
                 (A) (A) (A) (A) (A) (A) (A) (A) (A) (A) (A) (A)
                 (A) (A) (A) (A) (A) (A) (A) (A) (A) (A) (A) (A)
                 (A) (A) (A) (A) (A) (A) (A) (A) (A) (A) (A) (A)
                 (A) (A) (A) (A) (A) (A) (A) (A) (A) (A) (A) (A)
                 (A) (A) (A) (A) (A) (A) (A) (A) (A) (A) (A) (A)
                 (A) (A) (A) (A) (A) (A) (A) (A) (A) (A) (A) (A)
                 (A) (A) (A) (A) (A) (A) (A) (A) (A) (A) (A) (A)
                 (A) (A) (A) (A) (A) (A) (A) (A) (A) (A) (A) (A)
                 (A) (A) (A) (A) (A) (A) (A) (A) (A) (A) (A) (A)
                 (A) (A) (A) (A) (A) (A) (A) (A) (A) (A) (A) (A)
                 (A) (A) (A) (A) (A) (A) (A) (A) (A) (A) (A) (A)
                 (A) (A) (A) (A) (A) (A) (A) (A) (A) (A) (A) (A)
                 (A) (A) (A) (A) (A) (A) (A) (A) (A) (A) (A) (A)
                 (A) (A) (A) (A) (A) (A) (A) (A) (A) (A) (A) (A)
                 (A) (A) (A) (A) (A) (A) (A) (A) (A) (A) (A) (A)
                 (A) (A) (A) (A) (A) (A) (A) (A) (A) (A) (A) (A)
                 (A) (A) (A) (A) (A) (A) (A) (A) (A) (A) (A) (A)
                 (A) (A)
 The electronic state is 1-A.
 Alpha  occ. eigenvalues --  -24.76561 -24.76502 -14.47003 -14.46995 -14.44080
 Alpha  occ. eigenvalues --  -10.35493 -10.34302 -10.32927 -10.32923 -10.32668
 Alpha  occ. eigenvalues --  -10.32661 -10.30226 -10.30008 -10.30000 -10.29878
 Alpha  occ. eigenvalues --  -10.29872 -10.28631 -10.28627 -10.28483 -10.28479
 Alpha  occ. eigenvalues --   -6.92854  -1.28094  -1.24842  -1.09914  -1.08068
 Alpha  occ. eigenvalues --   -1.02961  -0.96494  -0.91523  -0.89265  -0.87864
 Alpha  occ. eigenvalues --   -0.85277  -0.83127  -0.82639  -0.76203  -0.71655
 Alpha  occ. eigenvalues --   -0.70425  -0.70283  -0.67369  -0.67131  -0.66823
 Alpha  occ. eigenvalues --   -0.63214  -0.62046  -0.60458  -0.60431  -0.59730
 Alpha  occ. eigenvalues --   -0.58231  -0.55630  -0.53930  -0.53215  -0.53080
 Alpha  occ. eigenvalues --   -0.52612  -0.52262  -0.51499  -0.51194  -0.50540
 Alpha  occ. eigenvalues --   -0.49702  -0.48902  -0.48332  -0.47482  -0.47370
 Alpha  occ. eigenvalues --   -0.46787  -0.46654  -0.46057  -0.44974  -0.43443
 Alpha  occ. eigenvalues --   -0.42632  -0.41598  -0.37407  -0.34814  -0.34264
 Alpha  occ. eigenvalues --   -0.33799  -0.28826  -0.27992
 Alpha virt. eigenvalues --   -0.04974   0.05129   0.06448   0.09252   0.10793
 Alpha virt. eigenvalues --    0.12524   0.12959   0.13169   0.14577   0.14960
 Alpha virt. eigenvalues --    0.15371   0.15878   0.16501   0.16756   0.17498
 Alpha virt. eigenvalues --    0.17709   0.18110   0.18542   0.19327   0.20721
 Alpha virt. eigenvalues --    0.20975   0.21106   0.22298   0.23187   0.24012
 Alpha virt. eigenvalues --    0.24111   0.24558   0.25322   0.26112   0.27037
 Alpha virt. eigenvalues --    0.27454   0.27561   0.27672   0.28952   0.29016
 Alpha virt. eigenvalues --    0.29887   0.30542   0.30725   0.30929   0.31977
 Alpha virt. eigenvalues --    0.32283   0.33613   0.34324   0.34586   0.34693
 Alpha virt. eigenvalues --    0.35369   0.36552   0.36740   0.37395   0.37777
 Alpha virt. eigenvalues --    0.38091   0.38383   0.38782   0.39246   0.39907
 Alpha virt. eigenvalues --    0.40073   0.40294   0.41045   0.41702   0.42318
 Alpha virt. eigenvalues --    0.42899   0.43091   0.43443   0.43745   0.44598
 Alpha virt. eigenvalues --    0.45064   0.45435   0.46038   0.46283   0.46688
 Alpha virt. eigenvalues --    0.46740   0.48312   0.48503   0.49002   0.49166
 Alpha virt. eigenvalues --    0.49892   0.49968   0.50627   0.51194   0.51869
 Alpha virt. eigenvalues --    0.52308   0.52744   0.53152   0.53665   0.53994
 Alpha virt. eigenvalues --    0.54163   0.55113   0.55537   0.56090   0.56166
 Alpha virt. eigenvalues --    0.56490   0.58248   0.58470   0.59369   0.59747
 Alpha virt. eigenvalues --    0.59993   0.60476   0.61619   0.62150   0.62411
 Alpha virt. eigenvalues --    0.63588   0.63775   0.64541   0.66144   0.67300
 Alpha virt. eigenvalues --    0.67465   0.68097   0.68456   0.69190   0.69610
 Alpha virt. eigenvalues --    0.70219   0.70955   0.71386   0.71542   0.73325
 Alpha virt. eigenvalues --    0.73577   0.73865   0.74480   0.75044   0.75192
 Alpha virt. eigenvalues --    0.77253   0.77476   0.77849   0.78620   0.78953
 Alpha virt. eigenvalues --    0.79570   0.79664   0.80035   0.80846   0.81242
 Alpha virt. eigenvalues --    0.82158   0.82352   0.82933   0.83065   0.84764
 Alpha virt. eigenvalues --    0.85113   0.85445   0.85724   0.87165   0.87916
 Alpha virt. eigenvalues --    0.88842   0.90000   0.90887   0.91387   0.91575
 Alpha virt. eigenvalues --    0.92633   0.93118   0.93702   0.94476   0.95210
 Alpha virt. eigenvalues --    0.95763   0.96448   0.97052   0.99570   1.01430
 Alpha virt. eigenvalues --    1.01659   1.02916   1.03423   1.04236   1.04552
 Alpha virt. eigenvalues --    1.04903   1.05233   1.06736   1.06982   1.07161
 Alpha virt. eigenvalues --    1.07536   1.09023   1.10938   1.11685   1.12298
 Alpha virt. eigenvalues --    1.13891   1.14000   1.15370   1.16091   1.16714
 Alpha virt. eigenvalues --    1.18133   1.18855   1.19685   1.20957   1.21706
 Alpha virt. eigenvalues --    1.22152   1.22843   1.23497   1.24763   1.25855
 Alpha virt. eigenvalues --    1.26797   1.27894   1.28738   1.29314   1.30129
 Alpha virt. eigenvalues --    1.30506   1.31655   1.32097   1.34799   1.34928
 Alpha virt. eigenvalues --    1.35184   1.36012   1.36556   1.37671   1.37942
 Alpha virt. eigenvalues --    1.38736   1.40665   1.41419   1.42214   1.43665
 Alpha virt. eigenvalues --    1.45048   1.45860   1.46536   1.46963   1.48165
 Alpha virt. eigenvalues --    1.48330   1.48740   1.48992   1.49980   1.52839
 Alpha virt. eigenvalues --    1.53299   1.54448   1.55447   1.56545   1.56848
 Alpha virt. eigenvalues --    1.57378   1.57734   1.57869   1.58740   1.59992
 Alpha virt. eigenvalues --    1.60448   1.61979   1.62021   1.63580   1.63868
 Alpha virt. eigenvalues --    1.64475   1.65095   1.65764   1.68258   1.68415
 Alpha virt. eigenvalues --    1.69337   1.69770   1.69842   1.70200   1.71697
 Alpha virt. eigenvalues --    1.72402   1.73196   1.73619   1.74070   1.74809
 Alpha virt. eigenvalues --    1.76244   1.77754   1.78256   1.78874   1.79717
 Alpha virt. eigenvalues --    1.80308   1.81149   1.83388   1.83654   1.84368
 Alpha virt. eigenvalues --    1.85352   1.86313   1.86579   1.88347   1.88406
 Alpha virt. eigenvalues --    1.89606   1.90252   1.90513   1.91864   1.92274
 Alpha virt. eigenvalues --    1.93768   1.94600   1.96163   1.96749   1.99049
 Alpha virt. eigenvalues --    1.99858   2.00622   2.01188   2.01556   2.02258
 Alpha virt. eigenvalues --    2.03987   2.04690   2.06253   2.08150   2.09116
 Alpha virt. eigenvalues --    2.10411   2.10849   2.11288   2.14690   2.15943
 Alpha virt. eigenvalues --    2.16453   2.17140   2.17828   2.18740   2.19696
 Alpha virt. eigenvalues --    2.21097   2.21573   2.21914   2.22195   2.24902
 Alpha virt. eigenvalues --    2.25328   2.25991   2.27692   2.28360   2.29263
 Alpha virt. eigenvalues --    2.29844   2.30778   2.31384   2.32164   2.33358
 Alpha virt. eigenvalues --    2.33554   2.35670   2.36171   2.36775   2.37434
 Alpha virt. eigenvalues --    2.38070   2.39027   2.41567   2.42110   2.44415
 Alpha virt. eigenvalues --    2.45466   2.45833   2.46834   2.47058   2.48405
 Alpha virt. eigenvalues --    2.49944   2.50507   2.53815   2.56189   2.57546
 Alpha virt. eigenvalues --    2.58115   2.58961   2.60124   2.60950   2.61266
 Alpha virt. eigenvalues --    2.61519   2.63273   2.64654   2.65020   2.66496
 Alpha virt. eigenvalues --    2.67100   2.67304   2.68157   2.68767   2.70199
 Alpha virt. eigenvalues --    2.70570   2.71165   2.71562   2.72956   2.73224
 Alpha virt. eigenvalues --    2.73651   2.75180   2.75680   2.76905   2.77396
 Alpha virt. eigenvalues --    2.77663   2.78059   2.78300   2.79720   2.79941
 Alpha virt. eigenvalues --    2.80770   2.82383   2.83126   2.83493   2.84201
 Alpha virt. eigenvalues --    2.85506   2.85542   2.86719   2.86890   2.87641
 Alpha virt. eigenvalues --    2.88712   2.89130   2.89899   2.91272   2.91290
 Alpha virt. eigenvalues --    2.93330   2.93602   2.94092   2.94569   2.95289
 Alpha virt. eigenvalues --    2.97067   2.97601   2.98685   2.99328   2.99592
 Alpha virt. eigenvalues --    3.00455   3.00507   3.02360   3.03097   3.04036
 Alpha virt. eigenvalues --    3.04319   3.05770   3.07202   3.07436   3.07727
 Alpha virt. eigenvalues --    3.08548   3.09520   3.09673   3.10656   3.10921
 Alpha virt. eigenvalues --    3.13299   3.13732   3.14275   3.15643   3.16638
 Alpha virt. eigenvalues --    3.17249   3.17900   3.18349   3.18666   3.18941
 Alpha virt. eigenvalues --    3.19929   3.20436   3.21058   3.21705   3.22389
 Alpha virt. eigenvalues --    3.22930   3.23872   3.24209   3.24856   3.27149
 Alpha virt. eigenvalues --    3.27902   3.28305   3.28787   3.29242   3.30297
 Alpha virt. eigenvalues --    3.30905   3.31427   3.31792   3.32415   3.34461
 Alpha virt. eigenvalues --    3.35142   3.35500   3.36401   3.37558   3.37709
 Alpha virt. eigenvalues --    3.38731   3.40128   3.40509   3.40643   3.41109
 Alpha virt. eigenvalues --    3.41960   3.42922   3.43949   3.44749   3.45442
 Alpha virt. eigenvalues --    3.47149   3.47445   3.47991   3.48761   3.49792
 Alpha virt. eigenvalues --    3.51324   3.51763   3.52033   3.53351   3.54174
 Alpha virt. eigenvalues --    3.54898   3.55600   3.55785   3.56103   3.58175
 Alpha virt. eigenvalues --    3.58445   3.59078   3.60124   3.61051   3.61265
 Alpha virt. eigenvalues --    3.61792   3.63386   3.63560   3.64123   3.65023
 Alpha virt. eigenvalues --    3.65779   3.66732   3.68843   3.69150   3.70099
 Alpha virt. eigenvalues --    3.71814   3.72475   3.72667   3.75195   3.77288
 Alpha virt. eigenvalues --    3.78614   3.79518   3.79900   3.81875   3.82568
 Alpha virt. eigenvalues --    3.83476   3.86448   3.89248   3.89761   3.89870
 Alpha virt. eigenvalues --    3.90597   3.90758   3.92734   3.93663   3.96145
 Alpha virt. eigenvalues --    3.97129   4.01332   4.02831   4.04337   4.05813
 Alpha virt. eigenvalues --    4.06673   4.08568   4.10241   4.12310   4.12400
 Alpha virt. eigenvalues --    4.13309   4.13982   4.15089   4.16127   4.16890
 Alpha virt. eigenvalues --    4.18316   4.19473   4.20970   4.22398   4.23589
 Alpha virt. eigenvalues --    4.24413   4.24835   4.26161   4.28186   4.30504
 Alpha virt. eigenvalues --    4.30687   4.31370   4.33005   4.33433   4.34303
 Alpha virt. eigenvalues --    4.35389   4.36516   4.37037   4.38122   4.39440
 Alpha virt. eigenvalues --    4.40296   4.40572   4.41616   4.43210   4.44406
 Alpha virt. eigenvalues --    4.48286   4.49145   4.49620   4.51288   4.55894
 Alpha virt. eigenvalues --    4.60829   4.61377   4.63052   4.63995   4.65237
 Alpha virt. eigenvalues --    4.68031   4.70514   4.71395   4.75489   4.76262
 Alpha virt. eigenvalues --    4.77157   4.80993   4.84387   4.84719   4.85038
 Alpha virt. eigenvalues --    4.85896   4.89333   4.90324   4.90602   4.91187
 Alpha virt. eigenvalues --    4.91946   4.92681   4.95631   4.97735   4.98669
 Alpha virt. eigenvalues --    4.99408   5.00698   5.03266   5.05396   5.07147
 Alpha virt. eigenvalues --    5.10244   5.10993   5.13210   5.15088   5.15805
 Alpha virt. eigenvalues --    5.20177   5.21652   5.24493   5.25290   5.26447
 Alpha virt. eigenvalues --    5.27855   5.29408   5.35188   5.36120   5.38387
 Alpha virt. eigenvalues --    5.39610   5.42482   5.43239   5.44969   5.47226
 Alpha virt. eigenvalues --    5.48119   5.52014   5.54102   5.58597   5.59783
 Alpha virt. eigenvalues --    5.61701   5.63685   5.70995   5.71485   5.72912
 Alpha virt. eigenvalues --    5.89316   5.91467   5.94686   5.98062   6.01213
 Alpha virt. eigenvalues --    6.05712   6.06647   6.08473   6.12825   6.33194
 Alpha virt. eigenvalues --    6.98445   6.98594   7.01244   7.01421   7.04690
 Alpha virt. eigenvalues --    7.04919   7.10896   7.18048   7.23031   7.28566
 Alpha virt. eigenvalues --    7.30972   7.33152   7.42076   7.42767   8.50234
 Alpha virt. eigenvalues --    8.52625   8.62983   8.64929   8.90791   8.94131
 Alpha virt. eigenvalues --    8.97190   8.99419   9.00589   9.08877  15.92077
 Alpha virt. eigenvalues --   22.40161  22.50158  22.52637  22.75523  22.77650
 Alpha virt. eigenvalues --   22.79457  22.84686  22.87538  22.88454  22.90021
 Alpha virt. eigenvalues --   23.03201  23.14782  23.30493  23.39026  23.66672
 Alpha virt. eigenvalues --   32.18088  33.02571  33.06389  57.14479  57.38450
          Condensed to atoms (all electrons):
               1          2          3          4          5          6
     1  C    5.649785  -0.043884   0.148623   0.408167  -0.040278  -0.193980
     2  C   -0.043884   5.651684   0.130920   0.023905   0.000254  -0.000852
     3  C    0.148623   0.130920   5.595841  -0.100254   0.011588  -0.010577
     4  C    0.408167   0.023905  -0.100254   5.171409   0.445816   0.006687
     5  C   -0.040278   0.000254   0.011588   0.445816   5.051467   0.459767
     6  C   -0.193980  -0.000852  -0.010577   0.006687   0.459767   5.036091
     7  H    0.008542   0.000002  -0.000351  -0.042501   0.443006  -0.040466
     8  C   -0.001842  -0.194644  -0.007997   0.000006   0.000065  -0.000726
     9  C    0.024285   0.407162  -0.096504  -0.000166   0.000010   0.000057
    10  C    0.000737  -0.042981   0.008876   0.000036  -0.000006   0.000059
    11  H    0.000005   0.008525  -0.000373  -0.000000   0.000000  -0.000000
    12  N    0.385401  -0.012950  -0.017880  -0.103266  -0.081988   0.451372
    13  N   -0.013162   0.382789  -0.016564   0.000163  -0.000419   0.001452
    14  B   -0.078660  -0.078917   0.003014   0.006933  -0.008620  -0.020646
    15  F   -0.007468  -0.007776   0.003709   0.000549  -0.000295  -0.002488
    16  F   -0.008138  -0.008213   0.003546   0.000232  -0.000427  -0.002087
    17  C   -0.274920  -0.269227   0.354870  -0.043401   0.001705  -0.003394
    18  C    0.013188   0.010412  -0.113440   0.000503  -0.000082   0.000179
    19  C    0.006224   0.018994  -0.116289   0.007941   0.000781   0.000047
    20  C   -0.002327  -0.000773  -0.001696  -0.000041  -0.000029   0.000001
    21  H    0.000435  -0.000166   0.001180   0.000098   0.000001  -0.000004
    22  C    0.001511  -0.004482  -0.001320   0.000676  -0.000024  -0.000012
    23  H   -0.000207   0.000529   0.000641  -0.003222   0.000311   0.000025
    24  C    0.000434   0.002797  -0.005854  -0.000137  -0.000007   0.000001
    25  H    0.000028   0.000036  -0.000174   0.000002  -0.000000   0.000000
    26  H    0.000142  -0.000019  -0.000222  -0.000065  -0.000008   0.000001
    27  H   -0.000971  -0.036821  -0.006872  -0.000019   0.000002  -0.000004
    28  H    0.000144   0.002868  -0.001230  -0.000004   0.000002  -0.000012
    29  H   -0.037268  -0.000956  -0.006963   0.431707  -0.028311   0.006556
    30  H    0.002928   0.000135  -0.001211   0.008798  -0.033365   0.421219
    31  N   -0.000034   0.000012   0.000048   0.000019   0.000000  -0.000000
    32  H   -0.000001   0.000002   0.000003   0.000001  -0.000000  -0.000000
    33  H   -0.000001   0.000002  -0.000000   0.000000   0.000000  -0.000000
               7          8          9         10         11         12
     1  C    0.008542  -0.001842   0.024285   0.000737   0.000005   0.385401
     2  C    0.000002  -0.194644   0.407162  -0.042981   0.008525  -0.012950
     3  C   -0.000351  -0.007997  -0.096504   0.008876  -0.000373  -0.017880
     4  C   -0.042501   0.000006  -0.000166   0.000036  -0.000000  -0.103266
     5  C    0.443006   0.000065   0.000010  -0.000006   0.000000  -0.081988
     6  C   -0.040466  -0.000726   0.000057   0.000059  -0.000000   0.451372
     7  H    0.454197  -0.000000  -0.000000   0.000000  -0.000000   0.003642
     8  C   -0.000000   5.034198   0.005383   0.460439  -0.040448   0.001596
     9  C   -0.000000   0.005383   5.171577   0.450884  -0.042427   0.000258
    10  C    0.000000   0.460439   0.450884   5.047828   0.442809  -0.000468
    11  H   -0.000000  -0.040448  -0.042427   0.442809   0.454190   0.000006
    12  N    0.003642   0.001596   0.000258  -0.000468   0.000006   6.208731
    13  N    0.000006   0.452016  -0.102758  -0.081741   0.003631  -0.033479
    14  B   -0.000050  -0.019917   0.006554  -0.008613  -0.000051   0.333404
    15  F    0.000003  -0.003203   0.000271  -0.000716   0.000003  -0.042095
    16  F    0.000002  -0.001437   0.000464  -0.000038   0.000002  -0.041161
    17  C    0.000007  -0.002730  -0.042106   0.000923  -0.000000   0.010652
    18  C    0.000002   0.000045   0.007379   0.000657   0.000005  -0.000485
    19  C    0.000005   0.000202   0.000269  -0.000130   0.000002  -0.000198
    20  C   -0.000000  -0.000027   0.001018   0.000023   0.000001   0.000021
    21  H    0.000000   0.000050  -0.003183   0.000261   0.000005  -0.000021
    22  C    0.000001  -0.000005   0.000135  -0.000009  -0.000000  -0.000012
    23  H    0.000006  -0.000003   0.000080  -0.000000   0.000000  -0.000145
    24  C    0.000000   0.000008  -0.000585  -0.000033   0.000000  -0.000001
    25  H   -0.000000   0.000000  -0.000003  -0.000004  -0.000000  -0.000000
    26  H   -0.000000   0.000000   0.000005   0.000000  -0.000000   0.000001
    27  H   -0.000000   0.006456   0.430707  -0.027807  -0.002398   0.000031
    28  H   -0.000000   0.421253   0.008869  -0.033392  -0.001536   0.000043
    29  H   -0.002416  -0.000003  -0.000014   0.000002  -0.000000   0.003516
    30  H   -0.001536  -0.000014  -0.000005   0.000002  -0.000000  -0.025759
    31  N    0.000000  -0.000000   0.000006   0.000000   0.000000  -0.000000
    32  H    0.000000   0.000000  -0.000000  -0.000000   0.000000  -0.000000
    33  H    0.000000   0.000000  -0.000001  -0.000000  -0.000000  -0.000000
              13         14         15         16         17         18
     1  C   -0.013162  -0.078660  -0.007468  -0.008138  -0.274920   0.013188
     2  C    0.382789  -0.078917  -0.007776  -0.008213  -0.269227   0.010412
     3  C   -0.016564   0.003014   0.003709   0.003546   0.354870  -0.113440
     4  C    0.000163   0.006933   0.000549   0.000232  -0.043401   0.000503
     5  C   -0.000419  -0.008620  -0.000295  -0.000427   0.001705  -0.000082
     6  C    0.001452  -0.020646  -0.002488  -0.002087  -0.003394   0.000179
     7  H    0.000006  -0.000050   0.000003   0.000002   0.000007   0.000002
     8  C    0.452016  -0.019917  -0.003203  -0.001437  -0.002730   0.000045
     9  C   -0.102758   0.006554   0.000271   0.000464  -0.042106   0.007379
    10  C   -0.081741  -0.008613  -0.000716  -0.000038   0.000923   0.000657
    11  H    0.003631  -0.000051   0.000003   0.000002  -0.000000   0.000005
    12  N   -0.033479   0.333404  -0.042095  -0.041161   0.010652  -0.000485
    13  N    6.210972   0.334718  -0.042289  -0.040385   0.010658  -0.000086
    14  B    0.334718   3.401464   0.376446   0.373983   0.012628  -0.000066
    15  F   -0.042289   0.376446   9.122611  -0.031941   0.000193  -0.000003
    16  F   -0.040385   0.373983  -0.031941   9.120438   0.000136   0.000004
    17  C    0.010658   0.012628   0.000193   0.000136   5.604638   0.372584
    18  C   -0.000086  -0.000066  -0.000003   0.000004   0.372584   5.178518
    19  C   -0.000558  -0.000258   0.000004  -0.000004   0.366819   0.014139
    20  C   -0.000010   0.000020   0.000000   0.000000  -0.008570   0.438990
    21  H   -0.000155  -0.000016  -0.000000  -0.000000  -0.063329   0.451260
    22  C    0.000019   0.000022   0.000000   0.000000  -0.006359  -0.051187
    23  H   -0.000021  -0.000021  -0.000000  -0.000000  -0.063806   0.009454
    24  C    0.000000   0.000000   0.000000   0.000000  -0.074184   0.022391
    25  H    0.000001   0.000001   0.000000   0.000000   0.009939  -0.037608
    26  H   -0.000000   0.000001   0.000000   0.000000   0.010279  -0.002604
    27  H    0.003468   0.000583   0.000007   0.000005   0.001863  -0.006398
    28  H   -0.025799  -0.001414   0.000254   0.000330  -0.000025   0.000001
    29  H    0.000033   0.000580   0.000004   0.000007   0.001890  -0.000546
    30  H    0.000056  -0.001554  -0.000239   0.000983  -0.000026  -0.000000
    31  N    0.000000   0.000000   0.000000   0.000000   0.003553  -0.003184
    32  H    0.000000   0.000000   0.000000   0.000000   0.000020  -0.000807
    33  H    0.000000   0.000000   0.000000   0.000000  -0.000007   0.001123
              19         20         21         22         23         24
     1  C    0.006224  -0.002327   0.000435   0.001511  -0.000207   0.000434
     2  C    0.018994  -0.000773  -0.000166  -0.004482   0.000529   0.002797
     3  C   -0.116289  -0.001696   0.001180  -0.001320   0.000641  -0.005854
     4  C    0.007941  -0.000041   0.000098   0.000676  -0.003222  -0.000137
     5  C    0.000781  -0.000029   0.000001  -0.000024   0.000311  -0.000007
     6  C    0.000047   0.000001  -0.000004  -0.000012   0.000025   0.000001
     7  H    0.000005  -0.000000   0.000000   0.000001   0.000006   0.000000
     8  C    0.000202  -0.000027   0.000050  -0.000005  -0.000003   0.000008
     9  C    0.000269   0.001018  -0.003183   0.000135   0.000080  -0.000585
    10  C   -0.000130   0.000023   0.000261  -0.000009  -0.000000  -0.000033
    11  H    0.000002   0.000001   0.000005  -0.000000   0.000000   0.000000
    12  N   -0.000198   0.000021  -0.000021  -0.000012  -0.000145  -0.000001
    13  N   -0.000558  -0.000010  -0.000155   0.000019  -0.000021   0.000000
    14  B   -0.000258   0.000020  -0.000016   0.000022  -0.000021   0.000000
    15  F    0.000004   0.000000  -0.000000   0.000000  -0.000000   0.000000
    16  F   -0.000004   0.000000  -0.000000   0.000000  -0.000000   0.000000
    17  C    0.366819  -0.008570  -0.063329  -0.006359  -0.063806  -0.074184
    18  C    0.014139   0.438990   0.451260  -0.051187   0.009454   0.022391
    19  C    5.191990  -0.053285   0.009158   0.430711   0.452967   0.029368
    20  C   -0.053285   5.130214  -0.042884   0.020811  -0.003380   0.397843
    21  H    0.009158  -0.042884   0.454464  -0.003200  -0.000044   0.009790
    22  C    0.430711   0.020811  -0.003200   5.138808  -0.043829   0.391355
    23  H    0.452967  -0.003380  -0.000044  -0.043829   0.455487   0.010173
    24  C    0.029368   0.397843   0.009790   0.391355   0.010173   4.741330
    25  H   -0.002714   0.440409  -0.006160   0.008181   0.000009  -0.053173
    26  H   -0.038345   0.008030   0.000011   0.441654  -0.006283  -0.054183
    27  H   -0.000365   0.001310  -0.003365   0.000158   0.000004  -0.000050
    28  H   -0.000000  -0.000000   0.000000   0.000000  -0.000000   0.000000
    29  H   -0.006963   0.000301   0.000001   0.001561  -0.003313  -0.000289
    30  H    0.000002   0.000000  -0.000000  -0.000000   0.000000  -0.000000
    31  N   -0.002689  -0.055820  -0.000136  -0.055877  -0.000125   0.370589
    32  H    0.001219   0.006018   0.000010  -0.007015  -0.000024  -0.026889
    33  H   -0.000675  -0.006716  -0.000024   0.005743   0.000011  -0.026987
              25         26         27         28         29         30
     1  C    0.000028   0.000142  -0.000971   0.000144  -0.037268   0.002928
     2  C    0.000036  -0.000019  -0.036821   0.002868  -0.000956   0.000135
     3  C   -0.000174  -0.000222  -0.006872  -0.001230  -0.006963  -0.001211
     4  C    0.000002  -0.000065  -0.000019  -0.000004   0.431707   0.008798
     5  C   -0.000000  -0.000008   0.000002   0.000002  -0.028311  -0.033365
     6  C    0.000000   0.000001  -0.000004  -0.000012   0.006556   0.421219
     7  H   -0.000000  -0.000000  -0.000000  -0.000000  -0.002416  -0.001536
     8  C    0.000000   0.000000   0.006456   0.421253  -0.000003  -0.000014
     9  C   -0.000003   0.000005   0.430707   0.008869  -0.000014  -0.000005
    10  C   -0.000004   0.000000  -0.027807  -0.033392   0.000002   0.000002
    11  H   -0.000000  -0.000000  -0.002398  -0.001536  -0.000000  -0.000000
    12  N   -0.000000   0.000001   0.000031   0.000043   0.003516  -0.025759
    13  N    0.000001  -0.000000   0.003468  -0.025799   0.000033   0.000056
    14  B    0.000001   0.000001   0.000583  -0.001414   0.000580  -0.001554
    15  F    0.000000   0.000000   0.000007   0.000254   0.000004  -0.000239
    16  F    0.000000   0.000000   0.000005   0.000330   0.000007   0.000983
    17  C    0.009939   0.010279   0.001863  -0.000025   0.001890  -0.000026
    18  C   -0.037608  -0.002604  -0.006398   0.000001  -0.000546  -0.000000
    19  C   -0.002714  -0.038345  -0.000365  -0.000000  -0.006963   0.000002
    20  C    0.440409   0.008030   0.001310  -0.000000   0.000301   0.000000
    21  H   -0.006160   0.000011  -0.003365   0.000000   0.000001  -0.000000
    22  C    0.008181   0.441654   0.000158   0.000000   0.001561  -0.000000
    23  H    0.000009  -0.006283   0.000004  -0.000000  -0.003313   0.000000
    24  C   -0.053173  -0.054183  -0.000050   0.000000  -0.000289  -0.000000
    25  H    0.472562  -0.000109   0.000096   0.000000   0.000002  -0.000000
    26  H   -0.000109   0.472668  -0.000000  -0.000000   0.000133   0.000000
    27  H    0.000096  -0.000000   0.432013  -0.000015  -0.000003  -0.000000
    28  H    0.000000  -0.000000  -0.000015   0.430986  -0.000000  -0.000001
    29  H    0.000002   0.000133  -0.000003  -0.000000   0.432878  -0.000018
    30  H   -0.000000   0.000000  -0.000000  -0.000001  -0.000018   0.431110
    31  N    0.000700   0.000844  -0.000010  -0.000000  -0.000018  -0.000000
    32  H   -0.000115   0.002354   0.000000   0.000000  -0.000001  -0.000000
    33  H    0.002397  -0.000122   0.000001  -0.000000  -0.000000   0.000000
              31         32         33
     1  C   -0.000034  -0.000001  -0.000001
     2  C    0.000012   0.000002   0.000002
     3  C    0.000048   0.000003  -0.000000
     4  C    0.000019   0.000001   0.000000
     5  C    0.000000  -0.000000   0.000000
     6  C   -0.000000  -0.000000  -0.000000
     7  H    0.000000   0.000000   0.000000
     8  C   -0.000000   0.000000   0.000000
     9  C    0.000006  -0.000000  -0.000001
    10  C    0.000000  -0.000000  -0.000000
    11  H    0.000000   0.000000  -0.000000
    12  N   -0.000000  -0.000000  -0.000000
    13  N    0.000000   0.000000   0.000000
    14  B    0.000000   0.000000   0.000000
    15  F    0.000000   0.000000   0.000000
    16  F    0.000000   0.000000   0.000000
    17  C    0.003553   0.000020  -0.000007
    18  C   -0.003184  -0.000807   0.001123
    19  C   -0.002689   0.001219  -0.000675
    20  C   -0.055820   0.006018  -0.006716
    21  H   -0.000136   0.000010  -0.000024
    22  C   -0.055877  -0.007015   0.005743
    23  H   -0.000125  -0.000024   0.000011
    24  C    0.370589  -0.026889  -0.026987
    25  H    0.000700  -0.000115   0.002397
    26  H    0.000844   0.002354  -0.000122
    27  H   -0.000010   0.000000   0.000001
    28  H   -0.000000   0.000000  -0.000000
    29  H   -0.000018  -0.000001  -0.000000
    30  H   -0.000000  -0.000000   0.000000
    31  N    6.503468   0.373782   0.374162
    32  H    0.373782   0.371752  -0.022423
    33  H    0.374162  -0.022423   0.371545
 Mulliken charges:
               1
     1  C    0.052564
     2  C    0.061632
     3  C    0.242913
     4  C   -0.220573
     5  C   -0.220916
     6  C   -0.108266
     7  H    0.177900
     8  C   -0.108720
     9  C   -0.227620
    10  C   -0.217598
    11  H    0.178050
    12  N   -0.038767
    13  N   -0.042556
    14  B    0.368451
    15  F   -0.365539
    16  F   -0.366298
    17  C    0.088727
    18  C   -0.304334
    19  C   -0.308368
    20  C   -0.269451
    21  H    0.195965
    22  C   -0.268015
    23  H    0.194724
    24  C    0.266292
    25  H    0.165696
    26  H    0.165836
    27  H    0.208394
    28  H    0.198677
    29  H    0.207912
    30  H    0.198494
    31  N   -0.509291
    32  H    0.302113
    33  H    0.301972
 Sum of Mulliken charges =  -0.00000
 Mulliken charges with hydrogens summed into heavy atoms:
               1
     1  C    0.052564
     2  C    0.061632
     3  C    0.242913
     4  C   -0.012661
     5  C   -0.043016
     6  C    0.090227
     8  C    0.089957
     9  C   -0.019226
    10  C   -0.039548
    12  N   -0.038767
    13  N   -0.042556
    14  B    0.368451
    15  F   -0.365539
    16  F   -0.366298
    17  C    0.088727
    18  C   -0.108368
    19  C   -0.113644
    20  C   -0.103754
    22  C   -0.102179
    24  C    0.266292
    31  N    0.094794
 Electronic spatial extent (au):  <R**2>=           6181.5048
 Charge=             -0.0000 electrons
 Dipole moment (field-independent basis, Debye):
    X=            -12.0976    Y=             -0.4786    Z=             -0.6597  Tot=             12.1250
 Quadrupole moment (field-independent basis, Debye-Ang):
   XX=            -95.0576   YY=            -99.3089   ZZ=           -125.0578
   XY=              3.2583   XZ=              2.5989   YZ=             -4.3566
 Traceless Quadrupole moment (field-independent basis, Debye-Ang):
   XX=             11.4172   YY=              7.1658   ZZ=            -18.5830
   XY=              3.2583   XZ=              2.5989   YZ=             -4.3566
 Octapole moment (field-independent basis, Debye-Ang**2):
  XXX=           -337.1227  YYY=             -0.5487  ZZZ=             -0.5685  XYY=             35.1986
  XXY=            -20.1414  XXZ=            -20.7500  XZZ=            -19.8446  YZZ=             -0.2909
  YYZ=             -0.7281  XYZ=             27.0045
 Hexadecapole moment (field-independent basis, Debye-Ang**3):
 XXXX=          -3893.6717 YYYY=          -1901.0039 ZZZZ=           -366.0895 XXXY=            131.1279
 XXXZ=            123.9542 YYYX=              5.5981 YYYZ=             28.3864 ZZZX=              4.3611
 ZZZY=            -26.0563 XXYY=          -1108.5675 XXZZ=          -1004.1634 YYZZ=           -457.9886
 XXYZ=           -106.8308 YYXZ=             -0.9774 ZZXY=              0.3160
 N-N= 1.589672575434D+03 E-N=-5.442498640551D+03  KE= 9.630368400010D+02
 Unable to Open any file for archive entry.
 1\1\GINC-X1001C7S7B0N0\SP\RwB97XD TD-FC\def2TZVP\C15H12B1F2N3\1008721\
 05-Feb-2026\0\\# td=(nstates=6) wb97xd/def2tzvp geom=check guess=read 
 scrf=(SMD, solvent=ethanol)\\BDP-NH2_ethanol_wb97xd_wb97xd_wb97xd\\0,1
 \C,0,0.625275685,-1.2128190873,-0.0832037801\C,0,0.6278562014,1.216698
 2343,0.0512962516\C,0,-0.0905361151,0.002397902,-0.0095930995\C,0,0.17
 25289992,-2.5407430983,-0.2598517274\C,0,1.3006139792,-3.3542754325,-0
 .3216725766\C,0,2.4125415017,-2.5083393033,-0.2006247532\H,0,1.3314736
 42,-4.4338758655,-0.4541253295\C,0,2.418720588,2.5105776135,0.12499826
 5\C,0,0.1795260012,2.5487511005,0.2073078193\C,0,1.3097043485,3.361033
 2681,0.2406550113\H,0,1.3437629052,4.4432124546,0.3491234486\N,0,2.012
 6008996,-1.2373152943,-0.0607775982\N,0,2.0151465594,1.2377957484,0.01
 45446982\B,0,2.9420231115,-0.0019028311,0.0071488297\F,0,3.7099877557,
 -0.0321021272,1.1741287045\F,0,3.7884720619,0.0256044535,-1.1028039209
 \C,0,-1.5562888389,0.0020305537,0.000082175\C,0,-2.2924847543,0.858110
 5796,-0.8421346991\C,0,-2.2779060775,-0.8570428334,0.8518529085\C,0,-3
 .6763305988,0.8518911555,-0.8438693432\H,0,-1.7659801258,1.5116539363,
 -1.5410730297\C,0,-3.6615389545,-0.8525566617,0.8759497025\H,0,-1.7392
 204944,-1.5139523015,1.538239247\C,0,-4.3977922944,0.0011179901,0.0237
 801001\H,0,-4.2231298573,1.5065599199,-1.5271135692\H,0,-4.1963599189,
 -1.5105617432,1.5654089965\H,0,-0.8573424091,2.8642884272,0.3009841476
 \H,0,3.4786338986,2.7641212636,0.1318660952\H,0,-0.8660844974,-2.85138
 9824,-0.3510853475\H,0,3.4717817751,-2.7638033683,-0.221451716\N,0,-5.
 7562262712,0.0249296992,0.0593092343\H,0,-6.2517047277,-0.7173039906,0
 .5373188997\H,0,-6.2618859779,0.5027124621,-0.6761330445\\Version=ES64
 L-G16RevC.01\State=1-A\HF=-967.8714383\RMSD=1.224e-09\PG=C01 [X(C15H12
 B1F2N3)]\\@
 The archive entry for this job was punched.


 THERE IS NO SUBJECT, HOWEVER COMPLEX,
 WHICH, IF STUDIED WITH PATIENCE AND INTELLIGIENCE
 WILL NOT BECOME
 MORE COMPLEX
                        QUOTED BY D. GORDON ROHMAN
 Job cpu time:       0 days  6 hours 38 minutes 26.1 seconds.
 Elapsed time:       0 days  0 hours 12 minutes 35.6 seconds.
 File lengths (MBytes):  RWF=   2088 Int=      0 D2E=      0 Chk=    136 Scr=      1
 Normal termination of Gaussian 16 at Thu Feb  5 17:34:47 2026.
