 Entering Gaussian System, Link 0=g16
 Initial command:
 /home/users/ntu/xiaogan4/Softwares/g16/l1.exe "/scratch/users/ntu/xiaogan4/g16scratch/Gau-2481225.inp" -scrdir="/scratch/users/ntu/xiaogan4/g16scratch/"
 Entering Link 1 = /home/users/ntu/xiaogan4/Softwares/g16/l1.exe PID=   2481226.
  
 Copyright (c) 1988,1990,1992,1993,1995,1998,2003,2009,2016,
            Gaussian, Inc.  All Rights Reserved.
  
 This is part of the Gaussian(R) 16 program.  It is based on
 the Gaussian(R) 09 system (copyright 2009, Gaussian, Inc.),
 the Gaussian(R) 03 system (copyright 2003, Gaussian, Inc.),
 the Gaussian(R) 98 system (copyright 1998, Gaussian, Inc.),
 the Gaussian(R) 94 system (copyright 1995, Gaussian, Inc.),
 the Gaussian 92(TM) system (copyright 1992, Gaussian, Inc.),
 the Gaussian 90(TM) system (copyright 1990, Gaussian, Inc.),
 the Gaussian 88(TM) system (copyright 1988, Gaussian, Inc.),
 the Gaussian 86(TM) system (copyright 1986, Carnegie Mellon
 University), and the Gaussian 82(TM) system (copyright 1983,
 Carnegie Mellon University). Gaussian is a federally registered
 trademark of Gaussian, Inc.
  
 This software contains proprietary and confidential information,
 including trade secrets, belonging to Gaussian, Inc.
  
 This software is provided under written license and may be
 used, copied, transmitted, or stored only in accord with that
 written license.
  
 The following legend is applicable only to US Government
 contracts under FAR:
  
                    RESTRICTED RIGHTS LEGEND
  
 Use, reproduction and disclosure by the US Government is
 subject to restrictions as set forth in subparagraphs (a)
 and (c) of the Commercial Computer Software - Restricted
 Rights clause in FAR 52.227-19.
  
 Gaussian, Inc.
 340 Quinnipiac St., Bldg. 40, Wallingford CT 06492
  
  
 ---------------------------------------------------------------
 Warning -- This program may not be used in any manner that
 competes with the business of Gaussian, Inc. or will provide
 assistance to any competitor of Gaussian, Inc.  The licensee
 of this program is prohibited from giving any competitor of
 Gaussian, Inc. access to this program.  By using this program,
 the user acknowledges that Gaussian, Inc. is engaged in the
 business of creating and licensing software in the field of
 computational chemistry and represents and warrants to the
 licensee that it is not a competitor of Gaussian, Inc. and that
 it will not use this program in any manner prohibited above.
 ---------------------------------------------------------------
  

 Cite this work as:
 Gaussian 16, Revision A.03,
 M. J. Frisch, G. W. Trucks, H. B. Schlegel, G. E. Scuseria, 
 M. A. Robb, J. R. Cheeseman, G. Scalmani, V. Barone, 
 G. A. Petersson, H. Nakatsuji, X. Li, M. Caricato, A. V. Marenich, 
 J. Bloino, B. G. Janesko, R. Gomperts, B. Mennucci, H. P. Hratchian, 
 J. V. Ortiz, A. F. Izmaylov, J. L. Sonnenberg, D. Williams-Young, 
 F. Ding, F. Lipparini, F. Egidi, J. Goings, B. Peng, A. Petrone, 
 T. Henderson, D. Ranasinghe, V. G. Zakrzewski, J. Gao, N. Rega, 
 G. Zheng, W. Liang, M. Hada, M. Ehara, K. Toyota, R. Fukuda, 
 J. Hasegawa, M. Ishida, T. Nakajima, Y. Honda, O. Kitao, H. Nakai, 
 T. Vreven, K. Throssell, J. A. Montgomery, Jr., J. E. Peralta, 
 F. Ogliaro, M. J. Bearpark, J. J. Heyd, E. N. Brothers, K. N. Kudin, 
 V. N. Staroverov, T. A. Keith, R. Kobayashi, J. Normand, 
 K. Raghavachari, A. P. Rendell, J. C. Burant, S. S. Iyengar, 
 J. Tomasi, M. Cossi, J. M. Millam, M. Klene, C. Adamo, R. Cammi, 
 J. W. Ochterski, R. L. Martin, K. Morokuma, O. Farkas, 
 J. B. Foresman, and D. J. Fox, Gaussian, Inc., Wallingford CT, 2016.
 
 ******************************************
 Gaussian 16:  ES64L-G16RevA.03 25-Dec-2016
                25-Dec-2025 
 ******************************************
 %nprocshared=64
 Will use up to   64 processors via shared memory.
 %mem=128GB
 %chk=04C_Si_1_C_C2_CC_N__CC_C2C_C3_C__m062x_def2SVP_ethanol.chk
 ----------------------------------------------------------------------
 # opt=calcall td=(nstates=5,root=2) scrf=(smd,solvent=ethanol) def2svp
  m062x
 ----------------------------------------------------------------------
 1/10=4,18=20,19=15,26=3,38=1/1,3;
 2/9=110,12=2,17=6,18=5,40=1/2;
 3/5=43,7=101,11=9,25=1,30=1,70=32201,71=2,72=4,74=-55,140=1/1,2,3,8;
 4//1;
 5/5=2,38=5,53=4/2;
 8/6=1,10=1,107=2,108=5/1;
 9/8=2,15=3,41=5,42=1,70=2/14;
 10/5=2004,20=4,28=2/2;
 11/6=1,8=1,12=-2,16=1,42=3/1,2,10;
 10/6=3,21=1,28=2/2,14;
 6/7=2,8=2,9=2,10=2,18=1/1;
 7/10=1,12=6,13=8,14=2,25=1,44=2/1,2,3,16;
 1/10=4,18=20,19=15,26=3/3(3);
 2/9=110/2;
 7/8=1,9=1,25=1,44=-1/16;
 99//99;
 2/9=110/2;
 3/5=43,7=101,11=9,25=1,30=1,70=32205,71=2,72=4,74=-55,140=1/1,2,3,8;
 4/5=5,16=3,69=1/1;
 5/5=2,38=5,53=4/2;
 8/6=1,10=1,107=2,108=5/1;
 9/8=2,15=3,41=5,42=1,49=4,70=2/14;
 10/5=2004,20=4,28=2/2;
 11/6=1,8=1,12=-2,16=1,42=3/1,2,10;
 10/6=3,21=1,28=2/2,14;
 7/10=1,12=6,13=8,14=2,25=1,44=2/1,2,3,16;
 1/10=4,18=20,19=15,26=3/3(-10);
 2/9=110/2;
 6/7=2,8=2,9=2,10=2,18=1/1;
 7/8=1,9=1,25=1,44=-1/16;
 99//99;
 --------------------------
 Step4 ES Opt m062x/def2SVP
 --------------------------
 Symbolic Z-matrix:
 Charge =  1 Multiplicity = 1
 C                     3.66773   0.01689  -1.82529 
 Si                    2.74015   0.01205  -0.19193 
 C                     3.95781   0.01852   1.23767 
 C                     1.56679   1.4657   -0.08131 
 C                     2.10905   2.76414  -0.10585 
 C                     1.2994    3.92776  -0.03204 
 N                     1.84118   5.15988  -0.06581 
 C                    -0.10615   3.74032   0.07983 
 C                    -0.6482    2.47414   0.10309 
 C                     0.1502    1.27977   0.01929 
 C                    -0.49838  -0.00335   0.04747 
 C                    -1.99166  -0.01097   0.11231 
 C                    -2.64739  -0.01344   1.35803 
 C                    -1.86701  -0.00905   2.64595 
 C                    -4.04717  -0.01767   1.34763 
 C                    -4.77937  -0.02113   0.16437 
 C                    -4.1247   -0.02148  -1.08007 
 N                    -4.8345   -0.07845  -2.26183 
 C                    -2.71782  -0.01429  -1.08067 
 C                     0.16264  -1.28025   0.01869 
 C                     1.58091  -1.45277  -0.08157 
 C                     2.13559  -2.74618  -0.10716 
 C                     1.33684  -3.91746  -0.0351 
 C                    -0.07037  -3.74321   0.07705 
 C                    -0.62439  -2.48222   0.10144 
 N                     1.8898   -5.14452  -0.07084 
 H                     4.3058    0.91118  -1.8998 
 H                     4.31584  -0.87017  -1.89955 
 H                     2.96996   0.01284  -2.6755 
 H                     4.60937  -0.86786   1.19041 
 H                     3.43104   0.01499   2.2032 
 H                     4.59842   0.9129    1.19104 
 H                     3.19097   2.91415  -0.18568 
 H                     2.84427   5.28589  -0.14757 
 H                     1.2572    5.98713  -0.01082 
 H                    -0.74935   4.6201    0.14472 
 H                    -1.73081   2.37858   0.18827 
 H                    -2.54264  -0.01148   3.51207 
 H                    -1.21958   0.87943   2.7214 
 H                    -1.21182  -0.89172   2.72255 
 H                    -4.58256  -0.01599   2.30075 
 H                    -5.87135  -0.02364   0.19388 
 H                    -4.34718   0.24286  -3.09168 
 H                    -5.79913   0.23298  -2.21813 
 H                    -2.18491  -0.0118   -2.03538 
 H                     3.2189   -2.88554  -0.18688 
 H                    -0.70544  -4.62892   0.1409 
 H                    -1.70785  -2.3972    0.18649 
 H                     2.89398  -5.26129  -0.15292 
 H                     1.31321  -5.97709  -0.01772 
 

 GradGradGradGradGradGradGradGradGradGradGradGradGradGradGradGradGradGrad
 Berny optimization.
 Initialization pass.
                           ----------------------------
                           !    Initial Parameters    !
                           ! (Angstroms and Degrees)  !
 --------------------------                            --------------------------
 ! Name  Definition              Value          Derivative Info.                !
 --------------------------------------------------------------------------------
 ! R1    R(1,2)                  1.8784         calculate D2E/DX2 analytically  !
 ! R2    R(1,27)                 1.1011         calculate D2E/DX2 analytically  !
 ! R3    R(1,28)                 1.1011         calculate D2E/DX2 analytically  !
 ! R4    R(1,29)                 1.0999         calculate D2E/DX2 analytically  !
 ! R5    R(2,3)                  1.8779         calculate D2E/DX2 analytically  !
 ! R6    R(2,4)                  1.8714         calculate D2E/DX2 analytically  !
 ! R7    R(2,21)                 1.8713         calculate D2E/DX2 analytically  !
 ! R8    R(3,30)                 1.1011         calculate D2E/DX2 analytically  !
 ! R9    R(3,31)                 1.0999         calculate D2E/DX2 analytically  !
 ! R10   R(3,32)                 1.1011         calculate D2E/DX2 analytically  !
 ! R11   R(4,5)                  1.4073         calculate D2E/DX2 analytically  !
 ! R12   R(4,10)                 1.4323         calculate D2E/DX2 analytically  !
 ! R13   R(5,6)                  1.4195         calculate D2E/DX2 analytically  !
 ! R14   R(5,33)                 1.0952         calculate D2E/DX2 analytically  !
 ! R15   R(6,7)                  1.3464         calculate D2E/DX2 analytically  !
 ! R16   R(6,8)                  1.4224         calculate D2E/DX2 analytically  !
 ! R17   R(7,34)                 1.0143         calculate D2E/DX2 analytically  !
 ! R18   R(7,35)                 1.0141         calculate D2E/DX2 analytically  !
 ! R19   R(8,9)                  1.3775         calculate D2E/DX2 analytically  !
 ! R20   R(8,36)                 1.0918         calculate D2E/DX2 analytically  !
 ! R21   R(9,10)                 1.4391         calculate D2E/DX2 analytically  !
 ! R22   R(9,37)                 1.0902         calculate D2E/DX2 analytically  !
 ! R23   R(10,11)                1.438          calculate D2E/DX2 analytically  !
 ! R24   R(11,12)                1.4947         calculate D2E/DX2 analytically  !
 ! R25   R(11,20)                1.4381         calculate D2E/DX2 analytically  !
 ! R26   R(12,13)                1.4078         calculate D2E/DX2 analytically  !
 ! R27   R(12,19)                1.3966         calculate D2E/DX2 analytically  !
 ! R28   R(13,14)                1.5059         calculate D2E/DX2 analytically  !
 ! R29   R(13,15)                1.3998         calculate D2E/DX2 analytically  !
 ! R30   R(14,38)                1.0985         calculate D2E/DX2 analytically  !
 ! R31   R(14,39)                1.1019         calculate D2E/DX2 analytically  !
 ! R32   R(14,40)                1.1019         calculate D2E/DX2 analytically  !
 ! R33   R(15,16)                1.3915         calculate D2E/DX2 analytically  !
 ! R34   R(15,41)                1.0932         calculate D2E/DX2 analytically  !
 ! R35   R(16,17)                1.4061         calculate D2E/DX2 analytically  !
 ! R36   R(16,42)                1.0924         calculate D2E/DX2 analytically  !
 ! R37   R(17,18)                1.3797         calculate D2E/DX2 analytically  !
 ! R38   R(17,19)                1.4069         calculate D2E/DX2 analytically  !
 ! R39   R(18,43)                1.0146         calculate D2E/DX2 analytically  !
 ! R40   R(18,44)                1.0146         calculate D2E/DX2 analytically  !
 ! R41   R(19,45)                1.0934         calculate D2E/DX2 analytically  !
 ! R42   R(20,21)                1.4322         calculate D2E/DX2 analytically  !
 ! R43   R(20,25)                1.4391         calculate D2E/DX2 analytically  !
 ! R44   R(21,22)                1.4076         calculate D2E/DX2 analytically  !
 ! R45   R(22,23)                1.4195         calculate D2E/DX2 analytically  !
 ! R46   R(22,46)                1.0951         calculate D2E/DX2 analytically  !
 ! R47   R(23,24)                1.4224         calculate D2E/DX2 analytically  !
 ! R48   R(23,26)                1.3464         calculate D2E/DX2 analytically  !
 ! R49   R(24,25)                1.3775         calculate D2E/DX2 analytically  !
 ! R50   R(24,47)                1.0917         calculate D2E/DX2 analytically  !
 ! R51   R(25,48)                1.0901         calculate D2E/DX2 analytically  !
 ! R52   R(26,49)                1.0143         calculate D2E/DX2 analytically  !
 ! R53   R(26,50)                1.0141         calculate D2E/DX2 analytically  !
 ! A1    A(2,1,27)             110.3094         calculate D2E/DX2 analytically  !
 ! A2    A(2,1,28)             110.3177         calculate D2E/DX2 analytically  !
 ! A3    A(2,1,29)             111.0315         calculate D2E/DX2 analytically  !
 ! A4    A(27,1,28)            107.9779         calculate D2E/DX2 analytically  !
 ! A5    A(27,1,29)            108.5607         calculate D2E/DX2 analytically  !
 ! A6    A(28,1,29)            108.5606         calculate D2E/DX2 analytically  !
 ! A7    A(1,2,3)              109.9848         calculate D2E/DX2 analytically  !
 ! A8    A(1,2,4)              111.0403         calculate D2E/DX2 analytically  !
 ! A9    A(1,2,21)             111.052          calculate D2E/DX2 analytically  !
 ! A10   A(3,2,4)              111.0313         calculate D2E/DX2 analytically  !
 ! A11   A(3,2,21)             111.0689         calculate D2E/DX2 analytically  !
 ! A12   A(4,2,21)             102.4823         calculate D2E/DX2 analytically  !
 ! A13   A(2,3,30)             110.3796         calculate D2E/DX2 analytically  !
 ! A14   A(2,3,31)             110.9608         calculate D2E/DX2 analytically  !
 ! A15   A(2,3,32)             110.3528         calculate D2E/DX2 analytically  !
 ! A16   A(30,3,31)            108.5714         calculate D2E/DX2 analytically  !
 ! A17   A(30,3,32)            107.9252         calculate D2E/DX2 analytically  !
 ! A18   A(31,3,32)            108.5671         calculate D2E/DX2 analytically  !
 ! A19   A(2,4,5)              118.297          calculate D2E/DX2 analytically  !
 ! A20   A(2,4,10)             121.564          calculate D2E/DX2 analytically  !
 ! A21   A(5,4,10)             120.1382         calculate D2E/DX2 analytically  !
 ! A22   A(4,5,6)              122.3865         calculate D2E/DX2 analytically  !
 ! A23   A(4,5,33)             120.5505         calculate D2E/DX2 analytically  !
 ! A24   A(6,5,33)             117.063          calculate D2E/DX2 analytically  !
 ! A25   A(5,6,7)              121.2881         calculate D2E/DX2 analytically  !
 ! A26   A(5,6,8)              117.3668         calculate D2E/DX2 analytically  !
 ! A27   A(7,6,8)              121.3451         calculate D2E/DX2 analytically  !
 ! A28   A(6,7,34)             120.9084         calculate D2E/DX2 analytically  !
 ! A29   A(6,7,35)             120.8923         calculate D2E/DX2 analytically  !
 ! A30   A(34,7,35)            118.1993         calculate D2E/DX2 analytically  !
 ! A31   A(6,8,9)              120.7499         calculate D2E/DX2 analytically  !
 ! A32   A(6,8,36)             118.7275         calculate D2E/DX2 analytically  !
 ! A33   A(9,8,36)             120.5225         calculate D2E/DX2 analytically  !
 ! A34   A(8,9,10)             122.9269         calculate D2E/DX2 analytically  !
 ! A35   A(8,9,37)             118.2075         calculate D2E/DX2 analytically  !
 ! A36   A(10,9,37)            118.8656         calculate D2E/DX2 analytically  !
 ! A37   A(4,10,9)             116.4278         calculate D2E/DX2 analytically  !
 ! A38   A(4,10,11)            124.2844         calculate D2E/DX2 analytically  !
 ! A39   A(9,10,11)            119.287          calculate D2E/DX2 analytically  !
 ! A40   A(10,11,12)           117.1294         calculate D2E/DX2 analytically  !
 ! A41   A(10,11,20)           125.771          calculate D2E/DX2 analytically  !
 ! A42   A(12,11,20)           117.0996         calculate D2E/DX2 analytically  !
 ! A43   A(11,12,13)           120.2484         calculate D2E/DX2 analytically  !
 ! A44   A(11,12,19)           118.8427         calculate D2E/DX2 analytically  !
 ! A45   A(13,12,19)           120.9089         calculate D2E/DX2 analytically  !
 ! A46   A(12,13,14)           121.0248         calculate D2E/DX2 analytically  !
 ! A47   A(12,13,15)           117.3365         calculate D2E/DX2 analytically  !
 ! A48   A(14,13,15)           121.6386         calculate D2E/DX2 analytically  !
 ! A49   A(13,14,38)           110.83           calculate D2E/DX2 analytically  !
 ! A50   A(13,14,39)           111.4306         calculate D2E/DX2 analytically  !
 ! A51   A(13,14,40)           111.4221         calculate D2E/DX2 analytically  !
 ! A52   A(38,14,39)           108.0097         calculate D2E/DX2 analytically  !
 ! A53   A(38,14,40)           108.0067         calculate D2E/DX2 analytically  !
 ! A54   A(39,14,40)           106.9633         calculate D2E/DX2 analytically  !
 ! A55   A(13,15,16)           122.175          calculate D2E/DX2 analytically  !
 ! A56   A(13,15,41)           118.8976         calculate D2E/DX2 analytically  !
 ! A57   A(16,15,41)           118.9272         calculate D2E/DX2 analytically  !
 ! A58   A(15,16,17)           120.5031         calculate D2E/DX2 analytically  !
 ! A59   A(15,16,42)           120.2013         calculate D2E/DX2 analytically  !
 ! A60   A(17,16,42)           119.2956         calculate D2E/DX2 analytically  !
 ! A61   A(16,17,18)           121.233          calculate D2E/DX2 analytically  !
 ! A62   A(16,17,19)           117.7716         calculate D2E/DX2 analytically  !
 ! A63   A(18,17,19)           120.9502         calculate D2E/DX2 analytically  !
 ! A64   A(17,18,43)           116.1288         calculate D2E/DX2 analytically  !
 ! A65   A(17,18,44)           116.0749         calculate D2E/DX2 analytically  !
 ! A66   A(43,18,44)           113.2463         calculate D2E/DX2 analytically  !
 ! A67   A(12,19,17)           121.3045         calculate D2E/DX2 analytically  !
 ! A68   A(12,19,45)           119.501          calculate D2E/DX2 analytically  !
 ! A69   A(17,19,45)           119.1944         calculate D2E/DX2 analytically  !
 ! A70   A(11,20,21)           124.2984         calculate D2E/DX2 analytically  !
 ! A71   A(11,20,25)           119.2788         calculate D2E/DX2 analytically  !
 ! A72   A(21,20,25)           116.4219         calculate D2E/DX2 analytically  !
 ! A73   A(2,21,20)            121.5531         calculate D2E/DX2 analytically  !
 ! A74   A(2,21,22)            118.3013         calculate D2E/DX2 analytically  !
 ! A75   A(20,21,22)           120.1445         calculate D2E/DX2 analytically  !
 ! A76   A(21,22,23)           122.3802         calculate D2E/DX2 analytically  !
 ! A77   A(21,22,46)           120.5352         calculate D2E/DX2 analytically  !
 ! A78   A(23,22,46)           117.0844         calculate D2E/DX2 analytically  !
 ! A79   A(22,23,24)           117.3612         calculate D2E/DX2 analytically  !
 ! A80   A(22,23,26)           121.3016         calculate D2E/DX2 analytically  !
 ! A81   A(24,23,26)           121.3371         calculate D2E/DX2 analytically  !
 ! A82   A(23,24,25)           120.7591         calculate D2E/DX2 analytically  !
 ! A83   A(23,24,47)           118.7329         calculate D2E/DX2 analytically  !
 ! A84   A(25,24,47)           120.5078         calculate D2E/DX2 analytically  !
 ! A85   A(20,25,24)           122.9285         calculate D2E/DX2 analytically  !
 ! A86   A(20,25,48)           118.8754         calculate D2E/DX2 analytically  !
 ! A87   A(24,25,48)           118.1961         calculate D2E/DX2 analytically  !
 ! A88   A(23,26,49)           120.9099         calculate D2E/DX2 analytically  !
 ! A89   A(23,26,50)           120.8847         calculate D2E/DX2 analytically  !
 ! A90   A(49,26,50)           118.2053         calculate D2E/DX2 analytically  !
 ! D1    D(27,1,2,3)           -59.6255         calculate D2E/DX2 analytically  !
 ! D2    D(27,1,2,4)            63.6761         calculate D2E/DX2 analytically  !
 ! D3    D(27,1,2,21)          177.0171         calculate D2E/DX2 analytically  !
 ! D4    D(28,1,2,3)            59.5824         calculate D2E/DX2 analytically  !
 ! D5    D(28,1,2,4)          -177.1161         calculate D2E/DX2 analytically  !
 ! D6    D(28,1,2,21)          -63.775          calculate D2E/DX2 analytically  !
 ! D7    D(29,1,2,3)           179.9812         calculate D2E/DX2 analytically  !
 ! D8    D(29,1,2,4)           -56.7173         calculate D2E/DX2 analytically  !
 ! D9    D(29,1,2,21)           56.6237         calculate D2E/DX2 analytically  !
 ! D10   D(1,2,3,30)           -59.5491         calculate D2E/DX2 analytically  !
 ! D11   D(1,2,3,31)          -179.9561         calculate D2E/DX2 analytically  !
 ! D12   D(1,2,3,32)            59.66           calculate D2E/DX2 analytically  !
 ! D13   D(4,2,3,30)           177.1441         calculate D2E/DX2 analytically  !
 ! D14   D(4,2,3,31)            56.7371         calculate D2E/DX2 analytically  !
 ! D15   D(4,2,3,32)           -63.6468         calculate D2E/DX2 analytically  !
 ! D16   D(21,2,3,30)           63.7985         calculate D2E/DX2 analytically  !
 ! D17   D(21,2,3,31)          -56.6085         calculate D2E/DX2 analytically  !
 ! D18   D(21,2,3,32)         -176.9925         calculate D2E/DX2 analytically  !
 ! D19   D(1,2,4,5)            -62.6141         calculate D2E/DX2 analytically  !
 ! D20   D(1,2,4,10)           117.0691         calculate D2E/DX2 analytically  !
 ! D21   D(3,2,4,5)             60.0846         calculate D2E/DX2 analytically  !
 ! D22   D(3,2,4,10)          -120.2322         calculate D2E/DX2 analytically  !
 ! D23   D(21,2,4,5)           178.743          calculate D2E/DX2 analytically  !
 ! D24   D(21,2,4,10)           -1.5738         calculate D2E/DX2 analytically  !
 ! D25   D(1,2,21,20)         -117.0436         calculate D2E/DX2 analytically  !
 ! D26   D(1,2,21,22)           62.5843         calculate D2E/DX2 analytically  !
 ! D27   D(3,2,21,20)          120.2229         calculate D2E/DX2 analytically  !
 ! D28   D(3,2,21,22)          -60.1492         calculate D2E/DX2 analytically  !
 ! D29   D(4,2,21,20)            1.591          calculate D2E/DX2 analytically  !
 ! D30   D(4,2,21,22)         -178.7811         calculate D2E/DX2 analytically  !
 ! D31   D(2,4,5,6)            179.7765         calculate D2E/DX2 analytically  !
 ! D32   D(2,4,5,33)            -0.1251         calculate D2E/DX2 analytically  !
 ! D33   D(10,4,5,6)             0.0886         calculate D2E/DX2 analytically  !
 ! D34   D(10,4,5,33)         -179.8129         calculate D2E/DX2 analytically  !
 ! D35   D(2,4,10,9)           179.7764         calculate D2E/DX2 analytically  !
 ! D36   D(2,4,10,11)            0.1184         calculate D2E/DX2 analytically  !
 ! D37   D(5,4,10,9)            -0.5462         calculate D2E/DX2 analytically  !
 ! D38   D(5,4,10,11)          179.7958         calculate D2E/DX2 analytically  !
 ! D39   D(4,5,6,7)           -179.5795         calculate D2E/DX2 analytically  !
 ! D40   D(4,5,6,8)              0.4605         calculate D2E/DX2 analytically  !
 ! D41   D(33,5,6,7)             0.3253         calculate D2E/DX2 analytically  !
 ! D42   D(33,5,6,8)          -179.6347         calculate D2E/DX2 analytically  !
 ! D43   D(5,6,7,34)             0.1635         calculate D2E/DX2 analytically  !
 ! D44   D(5,6,7,35)          -179.8783         calculate D2E/DX2 analytically  !
 ! D45   D(8,6,7,34)          -179.8781         calculate D2E/DX2 analytically  !
 ! D46   D(8,6,7,35)             0.08           calculate D2E/DX2 analytically  !
 ! D47   D(5,6,8,9)             -0.5345         calculate D2E/DX2 analytically  !
 ! D48   D(5,6,8,36)           179.607          calculate D2E/DX2 analytically  !
 ! D49   D(7,6,8,9)            179.5056         calculate D2E/DX2 analytically  !
 ! D50   D(7,6,8,36)            -0.3529         calculate D2E/DX2 analytically  !
 ! D51   D(6,8,9,10)             0.0662         calculate D2E/DX2 analytically  !
 ! D52   D(6,8,9,37)          -179.8927         calculate D2E/DX2 analytically  !
 ! D53   D(36,8,9,10)          179.9221         calculate D2E/DX2 analytically  !
 ! D54   D(36,8,9,37)           -0.0368         calculate D2E/DX2 analytically  !
 ! D55   D(8,9,10,4)             0.4794         calculate D2E/DX2 analytically  !
 ! D56   D(8,9,10,11)         -179.8446         calculate D2E/DX2 analytically  !
 ! D57   D(37,9,10,4)         -179.562          calculate D2E/DX2 analytically  !
 ! D58   D(37,9,10,11)           0.114          calculate D2E/DX2 analytically  !
 ! D59   D(4,10,11,12)        -178.109          calculate D2E/DX2 analytically  !
 ! D60   D(4,10,11,20)           1.8859         calculate D2E/DX2 analytically  !
 ! D61   D(9,10,11,12)           2.2422         calculate D2E/DX2 analytically  !
 ! D62   D(9,10,11,20)        -177.763          calculate D2E/DX2 analytically  !
 ! D63   D(10,11,12,13)        -89.9468         calculate D2E/DX2 analytically  !
 ! D64   D(10,11,12,19)         89.9936         calculate D2E/DX2 analytically  !
 ! D65   D(20,11,12,13)         90.0579         calculate D2E/DX2 analytically  !
 ! D66   D(20,11,12,19)        -90.0017         calculate D2E/DX2 analytically  !
 ! D67   D(10,11,20,21)         -1.8656         calculate D2E/DX2 analytically  !
 ! D68   D(10,11,20,25)        177.7856         calculate D2E/DX2 analytically  !
 ! D69   D(12,11,20,21)        178.1292         calculate D2E/DX2 analytically  !
 ! D70   D(12,11,20,25)         -2.2195         calculate D2E/DX2 analytically  !
 ! D71   D(11,12,13,14)         -0.0244         calculate D2E/DX2 analytically  !
 ! D72   D(11,12,13,15)        179.8636         calculate D2E/DX2 analytically  !
 ! D73   D(19,12,13,14)       -179.9635         calculate D2E/DX2 analytically  !
 ! D74   D(19,12,13,15)         -0.0755         calculate D2E/DX2 analytically  !
 ! D75   D(11,12,19,17)        179.9986         calculate D2E/DX2 analytically  !
 ! D76   D(11,12,19,45)          0.0316         calculate D2E/DX2 analytically  !
 ! D77   D(13,12,19,17)         -0.0615         calculate D2E/DX2 analytically  !
 ! D78   D(13,12,19,45)        179.9716         calculate D2E/DX2 analytically  !
 ! D79   D(12,13,14,38)        179.9817         calculate D2E/DX2 analytically  !
 ! D80   D(12,13,14,39)         59.6698         calculate D2E/DX2 analytically  !
 ! D81   D(12,13,14,40)        -59.716          calculate D2E/DX2 analytically  !
 ! D82   D(15,13,14,38)          0.0986         calculate D2E/DX2 analytically  !
 ! D83   D(15,13,14,39)       -120.2133         calculate D2E/DX2 analytically  !
 ! D84   D(15,13,14,40)        120.4009         calculate D2E/DX2 analytically  !
 ! D85   D(12,13,15,16)          0.0823         calculate D2E/DX2 analytically  !
 ! D86   D(12,13,15,41)       -179.7803         calculate D2E/DX2 analytically  !
 ! D87   D(14,13,15,16)        179.9696         calculate D2E/DX2 analytically  !
 ! D88   D(14,13,15,41)          0.107          calculate D2E/DX2 analytically  !
 ! D89   D(13,15,16,17)          0.0483         calculate D2E/DX2 analytically  !
 ! D90   D(13,15,16,42)       -179.9543         calculate D2E/DX2 analytically  !
 ! D91   D(41,15,16,17)        179.9109         calculate D2E/DX2 analytically  !
 ! D92   D(41,15,16,42)         -0.0918         calculate D2E/DX2 analytically  !
 ! D93   D(15,16,17,18)        177.3972         calculate D2E/DX2 analytically  !
 ! D94   D(15,16,17,19)         -0.1821         calculate D2E/DX2 analytically  !
 ! D95   D(42,16,17,18)         -2.6002         calculate D2E/DX2 analytically  !
 ! D96   D(42,16,17,19)        179.8206         calculate D2E/DX2 analytically  !
 ! D97   D(16,17,18,43)        159.4989         calculate D2E/DX2 analytically  !
 ! D98   D(16,17,18,44)         22.6578         calculate D2E/DX2 analytically  !
 ! D99   D(19,17,18,43)        -22.9987         calculate D2E/DX2 analytically  !
 ! D100  D(19,17,18,44)       -159.8397         calculate D2E/DX2 analytically  !
 ! D101  D(16,17,19,12)          0.1893         calculate D2E/DX2 analytically  !
 ! D102  D(16,17,19,45)       -179.8436         calculate D2E/DX2 analytically  !
 ! D103  D(18,17,19,12)       -177.3972         calculate D2E/DX2 analytically  !
 ! D104  D(18,17,19,45)          2.5699         calculate D2E/DX2 analytically  !
 ! D105  D(11,20,21,2)          -0.1554         calculate D2E/DX2 analytically  !
 ! D106  D(11,20,21,22)       -179.7765         calculate D2E/DX2 analytically  !
 ! D107  D(25,20,21,2)        -179.8157         calculate D2E/DX2 analytically  !
 ! D108  D(25,20,21,22)          0.5631         calculate D2E/DX2 analytically  !
 ! D109  D(11,20,25,24)        179.8193         calculate D2E/DX2 analytically  !
 ! D110  D(11,20,25,48)         -0.1266         calculate D2E/DX2 analytically  !
 ! D111  D(21,20,25,24)         -0.5024         calculate D2E/DX2 analytically  !
 ! D112  D(21,20,25,48)        179.5518         calculate D2E/DX2 analytically  !
 ! D113  D(2,21,22,23)        -179.705          calculate D2E/DX2 analytically  !
 ! D114  D(2,21,22,46)           0.1714         calculate D2E/DX2 analytically  !
 ! D115  D(20,21,22,23)         -0.0716         calculate D2E/DX2 analytically  !
 ! D116  D(20,21,22,46)        179.8047         calculate D2E/DX2 analytically  !
 ! D117  D(21,22,23,24)         -0.5053         calculate D2E/DX2 analytically  !
 ! D118  D(21,22,23,26)        179.528          calculate D2E/DX2 analytically  !
 ! D119  D(46,22,23,24)        179.6143         calculate D2E/DX2 analytically  !
 ! D120  D(46,22,23,26)         -0.3523         calculate D2E/DX2 analytically  !
 ! D121  D(22,23,24,25)          0.5732         calculate D2E/DX2 analytically  !
 ! D122  D(22,23,24,47)       -179.5909         calculate D2E/DX2 analytically  !
 ! D123  D(26,23,24,25)       -179.4602         calculate D2E/DX2 analytically  !
 ! D124  D(26,23,24,47)          0.3757         calculate D2E/DX2 analytically  !
 ! D125  D(22,23,26,49)         -0.1655         calculate D2E/DX2 analytically  !
 ! D126  D(22,23,26,50)        179.9219         calculate D2E/DX2 analytically  !
 ! D127  D(24,23,26,49)        179.8692         calculate D2E/DX2 analytically  !
 ! D128  D(24,23,26,50)         -0.0435         calculate D2E/DX2 analytically  !
 ! D129  D(23,24,25,20)         -0.0715         calculate D2E/DX2 analytically  !
 ! D130  D(23,24,25,48)        179.8747         calculate D2E/DX2 analytically  !
 ! D131  D(47,24,25,20)       -179.9045         calculate D2E/DX2 analytically  !
 ! D132  D(47,24,25,48)          0.0417         calculate D2E/DX2 analytically  !
 --------------------------------------------------------------------------------
 Trust Radius=3.00D-01 FncErr=1.00D-07 GrdErr=1.00D-06 EigMax=2.50D+02 EigMin=1.00D-04
 Number of steps in this run=    285 maximum allowed number of steps=    300.
 GradGradGradGradGradGradGradGradGradGradGradGradGradGradGradGradGradGrad

                          Input orientation:                          
 ---------------------------------------------------------------------
 Center     Atomic      Atomic             Coordinates (Angstroms)
 Number     Number       Type             X           Y           Z
 ---------------------------------------------------------------------
      1          6           0        3.667729    0.016891   -1.825294
      2         14           0        2.740153    0.012049   -0.191931
      3          6           0        3.957808    0.018524    1.237668
      4          6           0        1.566786    1.465695   -0.081308
      5          6           0        2.109053    2.764136   -0.105852
      6          6           0        1.299402    3.927760   -0.032044
      7          7           0        1.841184    5.159880   -0.065814
      8          6           0       -0.106149    3.740320    0.079825
      9          6           0       -0.648203    2.474140    0.103093
     10          6           0        0.150201    1.279765    0.019292
     11          6           0       -0.498382   -0.003350    0.047473
     12          6           0       -1.991656   -0.010971    0.112312
     13          6           0       -2.647391   -0.013439    1.358025
     14          6           0       -1.867006   -0.009051    2.645952
     15          6           0       -4.047174   -0.017674    1.347625
     16          6           0       -4.779369   -0.021126    0.164370
     17          6           0       -4.124701   -0.021479   -1.080070
     18          7           0       -4.834501   -0.078452   -2.261830
     19          6           0       -2.717818   -0.014288   -1.080669
     20          6           0        0.162640   -1.280248    0.018685
     21          6           0        1.580912   -1.452765   -0.081572
     22          6           0        2.135592   -2.746183   -0.107162
     23          6           0        1.336835   -3.917464   -0.035103
     24          6           0       -0.070365   -3.743207    0.077048
     25          6           0       -0.624386   -2.482215    0.101437
     26          7           0        1.889801   -5.144522   -0.070840
     27          1           0        4.305802    0.911181   -1.899799
     28          1           0        4.315837   -0.870174   -1.899553
     29          1           0        2.969964    0.012842   -2.675502
     30          1           0        4.609369   -0.867862    1.190410
     31          1           0        3.431040    0.014989    2.203200
     32          1           0        4.598420    0.912903    1.191041
     33          1           0        3.190970    2.914152   -0.185682
     34          1           0        2.844274    5.285887   -0.147571
     35          1           0        1.257204    5.987127   -0.010818
     36          1           0       -0.749345    4.620102    0.144718
     37          1           0       -1.730814    2.378582    0.188266
     38          1           0       -2.542643   -0.011484    3.512073
     39          1           0       -1.219582    0.879425    2.721395
     40          1           0       -1.211819   -0.891716    2.722546
     41          1           0       -4.582563   -0.015994    2.300749
     42          1           0       -5.871354   -0.023638    0.193881
     43          1           0       -4.347176    0.242863   -3.091682
     44          1           0       -5.799127    0.232983   -2.218125
     45          1           0       -2.184909   -0.011797   -2.035380
     46          1           0        3.218896   -2.885543   -0.186880
     47          1           0       -0.705443   -4.628918    0.140897
     48          1           0       -1.707853   -2.397204    0.186494
     49          1           0        2.893978   -5.261288   -0.152919
     50          1           0        1.313205   -5.977089   -0.017722
 ---------------------------------------------------------------------
                    Distance matrix (angstroms):
                    1          2          3          4          5
     1  C    0.000000
     2  Si   1.878376   0.000000
     3  C    3.076668   1.877892   0.000000
     4  C    3.091032   1.871394   3.090467   0.000000
     5  C    3.596291   2.824833   3.572300   1.407340   0.000000
     6  C    4.911172   4.175419   4.895040   2.477032   1.419508
     7  N    5.734315   5.227257   5.710753   3.704394   2.411005
     8  C    5.633432   4.698435   5.630996   2.828179   2.427866
     9  C    5.327665   4.198796   5.341596   2.440726   2.780327
    10  C    4.167775   2.891292   4.192021   1.432272   2.460918
    11  C    4.567729   3.247408   4.612447   2.537636   3.805418
    12  C    5.981951   4.741636   6.055032   3.857530   4.956272
    13  C    7.072141   5.606126   6.606373   4.692420   5.699265
    14  C    7.115195   5.411094   5.992702   4.626419   5.574230
    15  C    8.341962   6.959808   8.005819   5.979865   6.910151
    16  C    8.678345   7.528032   8.802943   6.522628   7.435124
    17  C    7.828077   6.922148   8.408357   5.966761   6.896988
    18  N    8.513963   7.852901   9.463646   6.936537   7.806503
    19  C    6.428892   5.529918   7.066806   4.641864   5.654077
    20  C    4.167550   2.891014   4.192377   3.085746   4.490109
    21  C    3.091158   1.871283   3.091071   2.918494   4.249915
    22  C    3.596387   2.824982   3.573884   4.250191   5.510383
    23  C    4.910906   4.175520   4.897086   5.388266   6.726448
    24  C    5.632991   4.698224   5.632392   5.462417   6.865044
    25  C    5.327295   4.198516   5.342398   4.518918   5.919363
    26  N    5.734049   5.227618   5.713658   6.618113   7.911774
    27  H    1.101110   2.485258   3.280493   3.334157   3.387830
    28  H    1.101110   2.485371   3.280263   4.039750   4.614701
    29  H    1.099885   2.494181   4.035935   3.287785   3.861850
    30  H    3.280845   2.485775   1.101111   4.039810   4.596007
    31  H    4.035442   2.492787   1.099886   3.286178   3.825857
    32  H    3.281356   2.485419   1.101123   3.333955   3.362431
    33  H    3.362997   2.936916   3.316418   2.178737   1.095181
    34  H    5.590631   5.275052   5.559133   4.028676   2.627074
    35  H    6.689295   6.159018   6.669048   4.532566   3.335019
    36  H    6.676904   5.789998   6.672807   3.919928   3.417285
    37  H    6.227060   5.072926   6.247523   3.432229   3.870366
    38  H    8.188835   6.451987   6.886921   5.655250   6.513964
    39  H    6.730688   4.991925   5.454169   3.995335   4.756603
    40  H    6.731895   4.992900   5.455130   4.597785   5.691509
    41  H    9.224567   7.735400   8.606351   6.759001   7.635350
    42  H    9.750529   8.620219   9.884518   7.590769   8.458630
    43  H    8.117481   7.661075   9.368370   6.747786   7.546846
    44  H    9.477467   8.779156  10.353081   7.768027   8.567832
    45  H    5.856478   5.258812   6.960369   4.480691   5.465070
    46  H    3.363031   2.936879   3.317971   4.655522   5.758228
    47  H    6.676382   5.789774   6.674394   6.508203   7.914513
    48  H    6.226719   5.072718   6.248234   5.071190   6.426015
    49  H    5.590591   5.275724   5.562543   6.857030   8.063855
    50  H    6.688714   6.159245   6.672129   7.447374   8.777822
                    6          7          8          9         10
     6  C    0.000000
     7  N    1.346398   0.000000
     8  C    1.422400   2.414222   0.000000
     9  C    2.434017   3.665894   1.377525   0.000000
    10  C    2.887070   4.233433   2.474613   1.439098   0.000000
    11  C    4.323422   5.669687   3.764301   2.482639   1.437998
    12  C    5.134735   6.438951   4.198616   2.825018   2.502440
    13  C    5.748262   6.995559   4.709821   3.429236   3.360224
    14  C    5.718066   6.915359   4.872721   3.757373   3.553803
    15  C    6.786443   7.967285   5.591200   4.394428   4.589747
    16  C    7.251464   8.409966   5.999551   4.826659   5.100395
    17  C    6.790857   7.966617   5.625411   4.440048   4.601806
    18  N    7.658097   8.765123   6.513346   5.443682   5.647612
    19  C    5.725156   6.970398   4.718542   3.446284   3.333170
    20  C    5.330868   6.655817   5.028130   3.841877   2.560043
    21  C    5.388112   6.617784   5.462633   4.519252   3.086070
    22  C    6.726542   7.911651   6.865500   5.919923   4.490660
    23  C    7.845314   9.091396   7.793399   6.694182   5.331252
    24  C    7.793067   9.107106   7.483613   6.244196   5.028144
    25  C    6.693770   8.031726   6.244116   4.956413   3.841774
    26  N    9.091555  10.304518   9.107521   8.032168   6.656260
    27  H    4.650451   5.243023   5.602522   5.567457   4.592144
    28  H    5.967130   6.771119   6.687941   6.311634   5.065247
    29  H    5.010512   5.880188   5.563128   5.183600   4.100984
    30  H    5.953845   6.750898   6.686169   6.324026   5.086059
    31  H    4.984975   5.843455   5.558644   5.205583   4.139205
    32  H    4.633446   5.217169   5.600184   5.581052   4.614568
    33  H    2.151519   2.622896   3.409405   3.875081   3.458253
    34  H    2.060215   1.014274   3.338485   4.490674   4.830620
    35  H    2.059909   1.014098   2.629656   3.998078   4.835868
    36  H    2.169780   2.654529   1.091755   2.148747   3.461613
    37  H    3.410381   4.534241   2.122646   1.090152   2.184987
    38  H    6.545206   7.665652   5.638516   4.624757   4.595460
    39  H    4.818615   5.954756   4.049981   3.118508   3.055804
    40  H    6.092729   7.329229   5.446305   4.302114   3.725320
    41  H    7.456047   8.582238   6.251454   5.148752   5.411385
    42  H    8.190502   9.296211   6.886071   5.790375   6.163478
    43  H    7.404302   8.463376   6.346414   5.372856   5.565943
    44  H    8.295748   9.342436   7.070501   6.078063   6.441761
    45  H    5.627956   6.843600   4.782648   3.621383   3.367870
    46  H    7.080221   8.163429   7.418161   6.615492   5.177759
    47  H    8.790111  10.116749   8.390890   7.103389   5.971553
    48  H    7.006890   8.352774   6.343976   4.985961   4.123157
    49  H    9.327159  10.474574   9.491253   8.511723   7.095304
    50  H    9.904869  11.149581   9.821004   8.676692   7.349550
                   11         12         13         14         15
    11  C    0.000000
    12  C    1.494700   0.000000
    13  C    2.517119   1.407763   0.000000
    14  C    2.936879   2.536705   1.505914   0.000000
    15  C    3.779487   2.398165   1.399828   2.537491   0.000000
    16  C    4.282620   2.788218   2.443400   3.826258   1.391479
    17  C    3.797614   2.443720   2.850757   4.356671   2.428936
    18  N    4.913293   3.704439   4.229779   5.735605   3.694827
    19  C    2.489723   1.396612   2.439711   3.822514   2.768359
    20  C    1.438140   2.502163   3.360790   3.554988   4.591591
    21  C    2.537897   3.857409   4.692829   4.627292   5.981425
    22  C    3.805899   4.956181   5.700139   5.576049   6.912869
    23  C    4.323786   5.134323   5.749459   5.720869   6.790276
    24  C    3.764386   4.197879   4.710959   4.875562   5.595442
    25  C    2.482652   2.824286   3.430221   3.759681   4.398002
    26  N    5.670015   6.438369   6.996841   6.918643   7.971467
    27  H    5.263879   6.675098   7.734031   7.721026   9.010036
    28  H    5.264884   6.676099   7.735138   7.722091   9.011708
    29  H    4.409567   5.691234   6.915541   7.191289   8.088678
    30  H    5.304979   6.743151   7.308810   6.693250   8.699613
    31  H    4.481947   5.811895   6.136974   5.316568   7.527068
    32  H    5.303269   6.741387   7.306694   6.690927   8.696941
    33  H    4.709299   5.958587   6.711206   6.492025   7.958477
    34  H    6.259986   7.177079   7.778693   7.618156   8.823572
    35  H    6.242699   6.822568   7.288785   7.264521   8.126465
    36  H    4.631279   4.794916   5.152125   5.379070   5.816496
    37  H    2.685575   2.404947   2.816064   3.429221   3.528694
    38  H    4.022751   3.444120   2.156594   1.098479   2.635998
    39  H    2.906765   2.862904   2.166708   1.101925   3.269145
    40  H    2.907611   2.863072   2.166600   1.101923   3.270106
    41  H    4.664541   3.391472   2.152586   2.737419   1.093202
    42  H    5.375005   3.880576   3.427721   4.695494   2.158424
    43  H    4.972739   3.984782   4.770205   6.255809   4.457054
    44  H    5.769461   4.470714   4.773155   6.259345   3.980797
    45  H    2.680060   2.156369   3.424776   4.692115   3.861708
    46  H    4.709577   5.958400   6.711858   6.493500   7.960851
    47  H    4.631143   4.793808   5.153175   5.382165   5.821248
    48  H    2.685644   2.404195   2.817366   3.431842   3.533102
    49  H    6.260525   7.176740   7.780080   7.621459   8.827611
    50  H    6.242728   6.821553   7.290001   7.268176   8.130957
                   16         17         18         19         20
    16  C    0.000000
    17  C    1.406137   0.000000
    18  N    2.427503   1.379717   0.000000
    19  C    2.408352   1.406902   2.424790   0.000000
    20  C    5.101967   4.601419   5.622853   3.332907   0.000000
    21  C    6.524052   5.966540   6.913739   4.641820   1.432239
    22  C    7.437496   6.896509   7.767984   5.653897   2.461167
    23  C    7.254598   6.789627   7.601428   5.724352   2.887306
    24  C    6.003018   5.623862   6.449633   4.717431   2.474644
    25  C    4.829576   4.438850   5.393346   3.445359   1.439091
    26  N    8.413224   7.964819   8.699525   6.969161   4.233641
    27  H    9.363243   8.521455   9.200847   7.131529   5.064458
    28  H    9.365011   8.522589   9.191668   7.132700   4.593130
    29  H    8.253374   7.271922   7.815954   5.907207   4.100219
    30  H    9.482517   9.063963  10.086021   7.718423   4.616969
    31  H    8.459843   8.238350   9.394913   6.970876   4.139104
    32  H    9.479947   9.062221  10.093815   7.716715   5.085319
    33  H    8.500864   7.933278   8.813300   6.655114   5.177407
    34  H    9.294172   8.809330   9.602594   7.739470   7.094571
    35  H    8.518803   8.137048   8.886348   7.277525   7.349400
    36  H    6.146745   5.868339   6.675057   5.182087   5.971744
    37  H    3.879801   3.619346   4.655412   2.882742   4.123222
    38  H    4.026183   4.857035   6.212492   4.596082   4.596964
    39  H    4.474534   4.868519   6.230385   4.183196   3.725502
    40  H    4.475445   4.868478   6.215242   4.183582   3.057934
    41  H    2.145431   3.411687   4.569956   3.861511   5.415081
    42  H    1.092387   2.161886   2.666193   3.401375   6.165942
    43  H    3.295202   2.041067   1.014585   2.600982   5.686184
    44  H    2.603989   2.040496   1.014596   3.293845   6.544910
    45  H    3.401501   2.162291   2.660087   1.093376   3.367364
    46  H    8.502970   7.932784   8.777379   6.654888   3.458313
    47  H    6.150542   5.866053   6.597648   5.180414   3.461516
    48  H    3.883355   3.617929   4.598568   2.881670   2.185062
    49  H    9.297324   8.807784   9.541419   7.738474   4.830977
    50  H    8.522095   8.134414   8.810461   7.275575   4.835850
                   21         22         23         24         25
    21  C    0.000000
    22  C    1.407571   0.000000
    23  C    2.477191   1.419544   0.000000
    24  C    2.828074   2.427805   1.422377   0.000000
    25  C    2.440614   2.780408   2.434126   1.377547   0.000000
    26  N    3.704672   2.411174   1.346373   2.414085   3.665882
    27  H    4.039705   4.615157   5.967216   6.687458   6.310851
    28  H    3.335308   3.389033   4.651516   5.603574   5.568522
    29  H    3.287239   3.860669   5.008605   5.561298   5.182282
    30  H    3.336405   3.366208   4.638042   5.604203   5.584281
    31  H    3.285949   3.826229   4.985968   5.559172   5.205758
    32  H    4.039961   4.597800   5.955990   6.687144   6.323904
    33  H    4.655437   5.758418   7.080358   7.417935   6.615146
    34  H    6.856374   8.063375   9.326666   9.490528   8.510994
    35  H    7.447267   8.777901   9.904941   9.820874   8.676562
    36  H    6.508534   7.915078   8.790592   8.391098   7.103548
    37  H    5.071446   6.426476   7.007179   6.343955   4.985887
    38  H    5.656437   6.516389   6.549007   5.642456   4.627814
    39  H    4.597663   5.692360   6.094563   5.448119   4.303378
    40  H    3.997149   4.759355   4.822387   4.053712   3.121695
    41  H    6.762262   7.641045   7.464378   6.260742   5.156199
    42  H    7.593059   8.462509   8.195871   6.892047   5.795155
    43  H    6.861351   7.737444   7.678475   6.649866   5.610813
    44  H    7.865849   8.734493   8.538955   7.341432   6.287337
    45  H    4.480531   5.464579   5.626546   4.780907   3.619970
    46  H    2.178746   1.095136   2.151755   3.409470   3.875128
    47  H    3.919804   3.417266   2.169802   1.091735   2.148595
    48  H    3.432171   3.870412   3.410340   2.122515   1.090120
    49  H    4.029154   2.627355   2.060203   3.338380   4.490749
    50  H    4.532687   3.335127   2.059834   2.629349   3.997825
                   26         27         28         29         30
    26  N    0.000000
    27  H    6.771535   0.000000
    28  H    5.244034   1.781383   0.000000
    29  H    5.877875   1.786950   1.786949   0.000000
    30  H    5.222703   3.578622   3.103875   4.290520   0.000000
    31  H    5.845274   4.289868   4.289401   4.900442   1.787073
    32  H    6.754358   3.104661   3.579244   4.290936   1.780799
    33  H    8.163851   2.862331   4.303929   3.829575   4.267214
    34  H   10.474270   4.934006   6.567498   5.849037   6.540213
    35  H   11.149771   6.215097   7.742424   6.762113   7.724690
    36  H   10.117284   6.594745   7.744562   6.558486   7.741255
    37  H    8.353028   6.553931   7.174635   5.991261   7.193164
    38  H    7.670196   8.777293   8.778485   8.287069   7.568010
    39  H    7.331628   7.203215   7.419914   6.886927   6.274838
    40  H    5.958977   7.420287   7.205501   6.887994   6.019488
    41  H    8.591724   9.874578   9.876927   9.044588   9.297857
    42  H    9.302100  10.432252  10.434460   9.295353  10.561787
    43  H    8.777772   8.760209   8.815204   7.332575   9.989480
    44  H    9.625383  10.132664  10.179928   8.783770  11.007577
    45  H    6.841604   6.557408   6.558579   5.194524   7.569728
    46  H    2.623537   4.304715   2.863257   3.828295   2.810939
    47  H    2.654425   7.744011   6.595820   6.556421   6.595017
    48  H    4.533993   7.173707   6.555017   5.990101   6.576779
    49  H    1.014270   6.568425   4.935007   5.846849   4.904008
    50  H    1.014126   7.742488   6.215920   6.759284   6.199071
                   31         32         33         34         35
    31  H    0.000000
    32  H    1.787034   0.000000
    33  H    3.764245   2.807362   0.000000
    34  H    5.801102   4.898153   2.397244   0.000000
    35  H    6.730072   6.193217   3.634997   1.740468   0.000000
    36  H    6.551338   6.590653   4.306450   3.666442   2.432938
    37  H    6.024223   6.573658   4.964940   5.431081   4.689295
    38  H    6.115451   7.565478   7.423413   8.394880   7.926723
    39  H    4.758578   6.016000   5.660758   6.645510   6.299847
    40  H    4.758989   6.273837   6.505918   7.927941   7.802938
    41  H    8.014257   9.294340   8.671558   9.447863   8.688135
    42  H    9.517005  10.558769   9.534170  10.211259   9.326711
    43  H    9.412138   9.940541   8.509070   9.263738   8.596358
    44  H   10.236778  10.963288   9.599028  10.223865   9.368788
    45  H    7.035990   7.568250   6.393953   7.544664   7.206531
    46  H    3.764382   4.269654   5.799762   8.180107   9.088647
    47  H    6.552058   7.742451   8.496269  10.535040  10.797009
    48  H    6.024450   7.192705   7.235156   8.936630   8.895364
    49  H    5.803347   6.544615   8.180898  10.547293  11.367764
    50  H    6.732215   7.728243   9.088915  11.367307  11.964349
                   36         37         38         39         40
    36  H    0.000000
    37  H    2.447364   0.000000
    38  H    6.000549   4.173628   0.000000
    39  H    4.566514   2.987570   1.780276   0.000000
    40  H    6.102394   4.169746   1.780240   1.771158   0.000000
    41  H    6.390259   4.281244   2.372467   3.505476   3.508093
    42  H    6.913878   4.786937   4.700092   5.370552   5.372055
    43  H    6.525251   4.707941   6.850592   6.631660   6.702461
    44  H    7.094374   5.190904   6.595424   6.766755   6.835099
    45  H    5.316781   3.296167   5.558975   4.934880   4.935486
    46  H    8.496564   7.235425   7.425483   6.506392   5.663156
    47  H    9.249125   7.082280   6.005067   6.104519   4.570340
    48  H    7.082589   4.775842   4.177082   4.171382   2.990669
    49  H   10.535856   8.937154   8.399372   7.930411   6.649739
    50  H   10.797266   8.895264   7.931927   7.805739   6.304430
                   41         42         43         44         45
    41  H    0.000000
    42  H    2.469804   0.000000
    43  H    5.403770   3.631675   0.000000
    44  H    4.686389   2.426694   1.694509   0.000000
    45  H    4.954874   4.308088   2.419922   3.627104   0.000000
    46  H    8.676714   9.537721   8.687361   9.755814   6.393471
    47  H    6.401257   6.920842   6.888108   7.426216   5.314396
    48  H    4.290011   4.792558   4.968140   5.425735   3.294613
    49  H    9.456863  10.216863   9.558573  10.489145   7.542938
    50  H    8.698853   9.333073   8.954158   9.694949   7.203642
                   46         47         48         49         50
    46  H    0.000000
    47  H    4.306650   0.000000
    48  H    4.964951   2.446927   0.000000
    49  H    2.398101   3.666340   5.430932   0.000000
    50  H    3.635647   2.432625   4.688718   1.740544   0.000000
 Stoichiometry    C22H24N3Si(1+)
 Framework group  C1[X(C22H24N3Si)]
 Deg. of freedom   144
 Full point group                 C1      NOp   1
 Largest Abelian subgroup         C1      NOp   1
 Largest concise Abelian subgroup C1      NOp   1
                         Standard orientation:                         
 ---------------------------------------------------------------------
 Center     Atomic      Atomic             Coordinates (Angstroms)
 Number     Number       Type             X           Y           Z
 ---------------------------------------------------------------------
      1          6           0        3.667729    0.016892   -1.825294
      2         14           0        2.740153    0.012050   -0.191931
      3          6           0        3.957808    0.018525    1.237668
      4          6           0        1.566786    1.465695   -0.081308
      5          6           0        2.109052    2.764136   -0.105852
      6          6           0        1.299401    3.927760   -0.032044
      7          7           0        1.841183    5.159880   -0.065814
      8          6           0       -0.106150    3.740320    0.079825
      9          6           0       -0.648203    2.474140    0.103093
     10          6           0        0.150201    1.279765    0.019292
     11          6           0       -0.498382   -0.003350    0.047473
     12          6           0       -1.991656   -0.010971    0.112312
     13          6           0       -2.647391   -0.013439    1.358025
     14          6           0       -1.867006   -0.009051    2.645952
     15          6           0       -4.047174   -0.017675    1.347625
     16          6           0       -4.779369   -0.021127    0.164370
     17          6           0       -4.124701   -0.021480   -1.080070
     18          7           0       -4.834501   -0.078453   -2.261830
     19          6           0       -2.717818   -0.014288   -1.080669
     20          6           0        0.162640   -1.280248    0.018685
     21          6           0        1.580912   -1.452765   -0.081572
     22          6           0        2.135592   -2.746183   -0.107162
     23          6           0        1.336836   -3.917464   -0.035103
     24          6           0       -0.070364   -3.743207    0.077048
     25          6           0       -0.624386   -2.482215    0.101437
     26          7           0        1.889802   -5.144522   -0.070840
     27          1           0        4.305802    0.911182   -1.899799
     28          1           0        4.315837   -0.870173   -1.899553
     29          1           0        2.969964    0.012843   -2.675502
     30          1           0        4.609369   -0.867861    1.190410
     31          1           0        3.431040    0.014990    2.203200
     32          1           0        4.598420    0.912904    1.191041
     33          1           0        3.190969    2.914153   -0.185682
     34          1           0        2.844273    5.285888   -0.147571
     35          1           0        1.257203    5.987127   -0.010818
     36          1           0       -0.749346    4.620102    0.144718
     37          1           0       -1.730814    2.378582    0.188266
     38          1           0       -2.542643   -0.011484    3.512073
     39          1           0       -1.219582    0.879425    2.721395
     40          1           0       -1.211819   -0.891716    2.722546
     41          1           0       -4.582563   -0.015995    2.300749
     42          1           0       -5.871354   -0.023639    0.193881
     43          1           0       -4.347176    0.242862   -3.091682
     44          1           0       -5.799127    0.232982   -2.218125
     45          1           0       -2.184909   -0.011797   -2.035380
     46          1           0        3.218896   -2.885542   -0.186880
     47          1           0       -0.705442   -4.628918    0.140897
     48          1           0       -1.707853   -2.397204    0.186494
     49          1           0        2.893979   -5.261287   -0.152919
     50          1           0        1.313206   -5.977089   -0.017722
 ---------------------------------------------------------------------
 Rotational constants (GHZ):           0.2074711           0.1819187           0.1125791
 Standard basis: def2SVP (5D, 7F)
 There are   514 symmetry adapted cartesian basis functions of A   symmetry.
 There are   488 symmetry adapted basis functions of A   symmetry.
   488 basis functions,   830 primitive gaussians,   514 cartesian basis functions
    95 alpha electrons       95 beta electrons
       nuclear repulsion energy      2407.8409765481 Hartrees.
 NAtoms=   50 NActive=   50 NUniq=   50 SFac= 1.00D+00 NAtFMM=   60 NAOKFM=F Big=F
 Integral buffers will be    131072 words long.
 Regular integral format.
 Two-electron integral symmetry is turned on.
 Force inversion solution in PCM.
 ------------------------------------------------------------------------------
 Polarizable Continuum Model (PCM)
 =================================
 Model                : PCM.
 Atomic radii         : SMD-Coulomb.
 Polarization charges : Total charges.
 Charge compensation  : None.
 Solution method      : Matrix inversion.
 Cavity type          : VdW (van der Waals Surface) (Alpha=1.000).
 Cavity algorithm     : GePol (No added spheres)
                        Default sphere list used, NSphG=   50.
                        Lebedev-Laikov grids with approx.  5.0 points / Ang**2.
                        Smoothing algorithm: York/Karplus (Gamma=1.0000).
                        Polarization charges: spherical gaussians, with
                                              point-specific exponents (IZeta= 3).
                        Self-potential: point-specific (ISelfS= 7).
                        Self-field    : sphere-specific E.n sum rule (ISelfD= 2).
 1st derivatives      : Analytical E(r).r(x)/FMM algorithm (CHGder, D1EAlg=3).
                        Cavity 1st derivative terms included.
 2nd derivatives      : Analytical E(r).r(xy)/FMM algorithm (CHGder, D2EAlg=3).
                        Cavity 2nd derivative terms included.
 Solvent              : Ethanol, Eps=  24.852000 Eps(inf)=   1.852593
 ------------------------------------------------------------------------------
 ------------------------------------------------------------------------------
 Atomic radii for non-electrostatic terms: SMD-CDS.
 ------------------------------------------------------------------------------
 Nuclear repulsion after PCM non-electrostatic terms =     2407.8415766706 Hartrees.
 One-electron integrals computed using PRISM.
   1 Symmetry operations used in ECPInt.
 ECPInt:  NShTT=   26565 NPrTT=   96561 LenC2=   23405 LenP2D=   57298.
 LDataN:  DoStor=T MaxTD1= 4 Len=   56
 NBasis=   488 RedAO= T EigKep=  2.14D-04  NBF=   488
 NBsUse=   488 1.00D-06 EigRej= -1.00D+00 NBFU=   488
 ExpMin= 7.80D-02 ExpMax= 6.90D+03 ExpMxC= 1.04D+03 IAcc=3 IRadAn=         5 AccDes= 0.00D+00
 Harris functional with IExCor= 1009 and IRadAn=       5 diagonalized for initial guess.
 HarFok:  IExCor= 1009 AccDes= 0.00D+00 IRadAn=         5 IDoV= 1 UseB2=F ITyADJ=14
 ICtDFT=  3500011 ScaDFX=  1.000000  1.000000  1.000000  1.000000
 FoFCou: FMM=F IPFlag=           0 FMFlag=      100000 FMFlg1=           0
         NFxFlg=           0 DoJE=T BraDBF=F KetDBF=T FulRan=T
         wScrn=  0.000000 ICntrl=       500 IOpCl=  0 I1Cent=   200000004 NGrid=           0
         NMat0=    1 NMatS0=      1 NMatT0=    0 NMatD0=    1 NMtDS0=    0 NMtDT0=    0
 Petite list used in FoFCou.
 Requested convergence on RMS density matrix=1.00D-08 within 128 cycles.
 Requested convergence on MAX density matrix=1.00D-06.
 Requested convergence on             energy=1.00D-06.
 No special actions if energy rises.
 Inv3:  Mode=1 IEnd=    40671372.
 Iteration    1 A*A^-1 deviation from unit magnitude is 1.15D-14 for    175.
 Iteration    1 A*A^-1 deviation from orthogonality  is 2.91D-15 for   2869   2473.
 Iteration    1 A^-1*A deviation from unit magnitude is 1.15D-14 for    175.
 Iteration    1 A^-1*A deviation from orthogonality  is 3.31D-15 for   3148    169.
 Error on total polarization charges =  0.04882
 SCF Done:  E(RM062X) =  -1305.19075112     A.U. after   13 cycles
            NFock= 13  Conv=0.68D-08     -V/T= 2.0096
 SMD-CDS (non-electrostatic) energy       (kcal/mol) =       0.38
 (included in total energy above)
 DoSCS=F DFT=T ScalE2(SS,OS)=  1.000000  1.000000
 ExpMin= 7.80D-02 ExpMax= 6.90D+03 ExpMxC= 1.04D+03 IAcc=3 IRadAn=         5 AccDes= 0.00D+00
 HarFok:  IExCor=  205 AccDes= 0.00D+00 IRadAn=         5 IDoV=-2 UseB2=F ITyADJ=14
 ICtDFT= 12500011 ScaDFX=  1.000000  1.000000  1.000000  1.000000
 GSVD:  LWork=       -1140 too small for GESVD, short by        4950 words or        4950 for optimal perf.
 Range of M.O.s used for correlation:    31   488
 NBasis=   488 NAE=    95 NBE=    95 NFC=    30 NFV=     0
 NROrb=    458 NOA=    65 NOB=    65 NVA=   393 NVB=   393

 **** Warning!!: The largest alpha MO coefficient is  0.11238780D+02

 NEqPCM:  Using equilibrium solvation (IEInf=0, Eps=  24.8520, EpsInf=   1.8526)
 Orbital symmetries:
       Occupied  (A) (A) (A) (A) (A) (A) (A) (A) (A) (A) (A) (A)
                 (A) (A) (A) (A) (A) (A) (A) (A) (A) (A) (A) (A)
                 (A) (A) (A) (A) (A) (A) (A) (A) (A) (A) (A) (A)
                 (A) (A) (A) (A) (A) (A) (A) (A) (A) (A) (A) (A)
                 (A) (A) (A) (A) (A) (A) (A) (A) (A) (A) (A) (A)
                 (A) (A) (A) (A) (A) (A) (A) (A) (A) (A) (A) (A)
                 (A) (A) (A) (A) (A) (A) (A) (A) (A) (A) (A) (A)
                 (A) (A) (A) (A) (A) (A) (A) (A) (A) (A) (A)
       Virtual   (A) (A) (A) (A) (A) (A) (A) (A) (A) (A) (A) (A)
                 (A) (A) (A) (A) (A) (A) (A) (A) (A) (A) (A) (A)
                 (A) (A) (A) (A) (A) (A) (A) (A) (A) (A) (A) (A)
                 (A) (A) (A) (A) (A) (A) (A) (A) (A) (A) (A) (A)
                 (A) (A) (A) (A) (A) (A) (A) (A) (A) (A) (A) (A)
                 (A) (A) (A) (A) (A) (A) (A) (A) (A) (A) (A) (A)
                 (A) (A) (A) (A) (A) (A) (A) (A) (A) (A) (A) (A)
                 (A) (A) (A) (A) (A) (A) (A) (A) (A) (A) (A) (A)
                 (A) (A) (A) (A) (A) (A) (A) (A) (A) (A) (A) (A)
                 (A) (A) (A) (A) (A) (A) (A) (A) (A) (A) (A) (A)
                 (A) (A) (A) (A) (A) (A) (A) (A) (A) (A) (A) (A)
                 (A) (A) (A) (A) (A) (A) (A) (A) (A) (A) (A) (A)
                 (A) (A) (A) (A) (A) (A) (A) (A) (A) (A) (A) (A)
                 (A) (A) (A) (A) (A) (A) (A) (A) (A) (A) (A) (A)
                 (A) (A) (A) (A) (A) (A) (A) (A) (A) (A) (A) (A)
                 (A) (A) (A) (A) (A) (A) (A) (A) (A) (A) (A) (A)
                 (A) (A) (A) (A) (A) (A) (A) (A) (A) (A) (A) (A)
                 (A) (A) (A) (A) (A) (A) (A) (A) (A) (A) (A) (A)
                 (A) (A) (A) (A) (A) (A) (A) (A) (A) (A) (A) (A)
                 (A) (A) (A) (A) (A) (A) (A) (A) (A) (A) (A) (A)
                 (A) (A) (A) (A) (A) (A) (A) (A) (A) (A) (A) (A)
                 (A) (A) (A) (A) (A) (A) (A) (A) (A) (A) (A) (A)
                 (A) (A) (A) (A) (A) (A) (A) (A) (A) (A) (A) (A)
                 (A) (A) (A) (A) (A) (A) (A) (A) (A) (A) (A) (A)
                 (A) (A) (A) (A) (A) (A) (A) (A) (A) (A) (A) (A)
                 (A) (A) (A) (A) (A) (A) (A) (A) (A) (A) (A) (A)
                 (A) (A) (A) (A) (A) (A) (A) (A) (A) (A) (A) (A)
                 (A) (A) (A) (A) (A) (A) (A) (A) (A) (A) (A) (A)
                 (A) (A) (A) (A) (A) (A) (A) (A) (A) (A) (A) (A)
                 (A) (A) (A) (A) (A) (A) (A) (A) (A) (A) (A) (A)
                 (A) (A) (A) (A) (A) (A) (A) (A) (A) (A) (A) (A)
                 (A) (A) (A) (A) (A) (A) (A) (A) (A) (A) (A) (A)
                 (A) (A) (A) (A) (A) (A) (A) (A) (A)
    20 initial guesses have been made.
 Convergence on wavefunction:    0.000001000000000
 Iteration     1 Dimension    20 NMult     0 NNew     20
 CISAX will form    20 AO SS matrices at one time.
 New state      4 was old state      5
 New state      5 was old state      6
 Iteration     2 Dimension    30 NMult    20 NNew     10
 New state      1 was old state      2
 New state      2 was old state      1
 Iteration     3 Dimension    40 NMult    30 NNew     10
 Iteration     4 Dimension    50 NMult    40 NNew     10
 Iteration     5 Dimension    60 NMult    50 NNew     10
 Iteration     6 Dimension    70 NMult    60 NNew     10
 Iteration     7 Dimension    80 NMult    70 NNew     10
 Iteration     8 Dimension    90 NMult    80 NNew     10
 Iteration     9 Dimension   100 NMult    90 NNew     10
 Iteration    10 Dimension   106 NMult   100 NNew      6
 Iteration    11 Dimension   110 NMult   106 NNew      4
 Iteration    12 Dimension   112 NMult   110 NNew      2
 Iteration    13 Dimension   114 NMult   112 NNew      2
 ***********************************************************************
 Excited states from <AA,BB:AA,BB> singles matrix:
 ***********************************************************************
 
 Ground to excited state transition densities written to RWF  633
 Ground to excited state transition electric dipole moments (Au):
       state          X           Y           Z        Dip. S.      Osc.
         1         0.0297     -4.7258     -0.0006     22.3336      1.2162
         2        -0.0247     -0.8555     -0.0073      0.7325      0.0444
         3        -0.0143     -0.2225     -0.0018      0.0497      0.0044
         4        -0.0526      0.0053     -0.0291      0.0036      0.0003
         5        -0.0295     -0.5250      0.0010      0.2765      0.0269
 Ground to excited state transition velocity dipole moments (Au):
       state          X           Y           Z        Dip. S.      Osc.
         1        -0.0025      0.3872     -0.0000      0.1500      1.2240
         2         0.0025      0.0734      0.0009      0.0054      0.0396
         3         0.0020      0.0255      0.0003      0.0007      0.0033
         4         0.0020     -0.0008      0.0044      0.0000      0.0001
         5         0.0043      0.0798     -0.0001      0.0064      0.0291
 Ground to excited state transition magnetic dipole moments (Au):
       state          X           Y           Z
         1        -0.0503     -0.0015     -0.4890
         2         0.0695      0.0076     -0.2811
         3        -0.0491      0.0006     -0.3794
         4        -0.0013     -0.0037     -0.0053
         5         0.1363      0.0008      1.3413
 Ground to excited state transition velocity quadrupole moments (Au):
       state          XX          YY          ZZ          XY          XZ          YZ
         1        -0.0066      0.0052      0.0012      1.0655      0.0023     -0.0281
         2        -0.0197      0.0159     -0.0067      0.1909     -0.0091     -0.0249
         3        -0.0135      0.0284     -0.0043      0.0962     -0.0028     -0.0011
         4        -0.7637      2.1532     -0.2482     -0.0137      0.0427      0.0018
         5        -0.0129      0.0642     -0.0052      0.1023     -0.0001      0.0008
 <0|del|b> * <b|rxdel|0> + <0|del|b> * <b|delr+rdel|0>
 Rotatory Strengths (R) in cgs (10**-40 erg-esu-cm/Gauss)
       state          XX          YY          ZZ    R(velocity)    E-M Angle
         1        -6.3485      0.8757      1.5418     -1.3103       90.14
         2         4.4437     -1.2692      0.4769      1.2172       88.74
         3         0.0088     -0.6441     -0.4113     -0.3489       91.15
         4        -0.1181      0.0960     -0.0939     -0.0386       90.00
         5        -0.2781      1.0229      1.5254      0.7567       89.75
 1/2[<0|r|b>*<b|rxdel|0> + (<0|rxdel|b>*<b|r|0>)*]
 Rotatory Strengths (R) in cgs (10**-40 erg-esu-cm/Gauss)
       state          XX          YY          ZZ     R(length)
         1         1.0573     -5.0174     -0.1915     -1.3839
         2         1.2119      4.5821     -1.4549      1.4464
         3        -0.4973      0.0912     -0.4851     -0.2971
         4        -0.0467      0.0140     -0.1095     -0.0474
         5         2.8400      0.2931     -0.9865      0.7155
  1/2[<0|del|b>*<b|r|0> + (<0|r|b>*<b|del|0>)*] (Au)
       state          X           Y           Z        Dip. S.   Osc.(frdel)
         1        -0.0001     -1.8300      0.0000      1.8301      1.2201
         2        -0.0001     -0.0628     -0.0000      0.0629      0.0419
         3        -0.0000     -0.0057     -0.0000      0.0057      0.0038
         4        -0.0001     -0.0000     -0.0001      0.0002      0.0002
         5        -0.0001     -0.0419     -0.0000      0.0420      0.0280

 Excitation energies and oscillator strengths:
 
 Excited State   1:      Singlet-A      2.2228 eV  557.80 nm  f=1.2162  <S**2>=0.000
      94 -> 96         0.51991
      95 -> 96        -0.46876
 
 Excited State   2:      Singlet-A      2.4740 eV  501.16 nm  f=0.0444  <S**2>=0.000
      94 -> 96         0.46804
      95 -> 96         0.52086
 This state for optimization and/or second-order correction.
 Total Energy, E(TD-HF/TD-DFT) =  -1305.09983484    
 Copying the excited state density for this state as the 1-particle RhoCI density.
 
 Excited State   3:      Singlet-A      3.6112 eV  343.34 nm  f=0.0044  <S**2>=0.000
      89 -> 96        -0.13331
      93 -> 96         0.68018
 
 Excited State   4:      Singlet-A      3.7994 eV  326.33 nm  f=0.0003  <S**2>=0.000
      91 -> 96        -0.44056
      92 -> 96         0.53561
 
 Excited State   5:      Singlet-A      3.9765 eV  311.79 nm  f=0.0269  <S**2>=0.000
      90 -> 96         0.68302
      94 -> 97        -0.11140
 SavETr:  write IOETrn=   770 NScale= 10 NData=  16 NLR=1 NState=    5 LETran=     100.
          IDoAtm=11111111111111111111111111111111111111111111111111
 NEqPCM:  Using equilibrium solvation (IEInf=0, Eps=  24.8520, EpsInf=   1.8526)
          Differentiating once with respect to electric field.
                with respect to dipole field.
          Differentiating once with respect to nuclear coordinates.
          There are     1 degrees of freedom in the 1st order CPHF.  IDoFFX=0 NUNeed=     1.
 LinEq1:  Iter=  0 NonCon=     1 RMS=4.19D-03 Max=2.45D-01 NDo=     1
 AX will form     1 AO Fock derivatives at one time.
 LinEq1:  Iter=  1 NonCon=     1 RMS=1.80D-03 Max=1.15D-01 NDo=     1
 LinEq1:  Iter=  2 NonCon=     1 RMS=1.32D-03 Max=7.89D-02 NDo=     1
 LinEq1:  Iter=  3 NonCon=     1 RMS=4.14D-04 Max=2.03D-02 NDo=     1
 LinEq1:  Iter=  4 NonCon=     1 RMS=2.18D-04 Max=8.82D-03 NDo=     1
 LinEq1:  Iter=  5 NonCon=     1 RMS=8.14D-05 Max=3.73D-03 NDo=     1
 LinEq1:  Iter=  6 NonCon=     1 RMS=3.60D-05 Max=2.22D-03 NDo=     1
 LinEq1:  Iter=  7 NonCon=     1 RMS=1.69D-05 Max=1.24D-03 NDo=     1
 LinEq1:  Iter=  8 NonCon=     1 RMS=7.49D-06 Max=4.31D-04 NDo=     1
 LinEq1:  Iter=  9 NonCon=     1 RMS=3.36D-06 Max=2.38D-04 NDo=     1
 LinEq1:  Iter= 10 NonCon=     1 RMS=1.50D-06 Max=6.15D-05 NDo=     1
 LinEq1:  Iter= 11 NonCon=     1 RMS=5.93D-07 Max=3.37D-05 NDo=     1
 LinEq1:  Iter= 12 NonCon=     1 RMS=3.52D-07 Max=1.60D-05 NDo=     1
 LinEq1:  Iter= 13 NonCon=     1 RMS=1.33D-07 Max=5.18D-06 NDo=     1
 LinEq1:  Iter= 14 NonCon=     1 RMS=7.31D-08 Max=4.28D-06 NDo=     1
 LinEq1:  Iter= 15 NonCon=     1 RMS=2.79D-08 Max=2.36D-06 NDo=     1
 LinEq1:  Iter= 16 NonCon=     1 RMS=1.09D-08 Max=7.65D-07 NDo=     1
 LinEq1:  Iter= 17 NonCon=     1 RMS=5.80D-09 Max=2.96D-07 NDo=     1
 LinEq1:  Iter= 18 NonCon=     1 RMS=1.75D-09 Max=5.73D-08 NDo=     1
 LinEq1:  Iter= 19 NonCon=     1 RMS=8.40D-10 Max=3.04D-08 NDo=     1
 LinEq1:  Iter= 20 NonCon=     1 RMS=3.61D-10 Max=1.45D-08 NDo=     1
 LinEq1:  Iter= 21 NonCon=     1 RMS=1.24D-10 Max=4.51D-09 NDo=     1
 LinEq1:  Iter= 22 NonCon=     1 RMS=6.38D-11 Max=2.81D-09 NDo=     1
 LinEq1:  Iter= 23 NonCon=     1 RMS=2.17D-11 Max=1.22D-09 NDo=     1
 LinEq1:  Iter= 24 NonCon=     0 RMS=9.49D-12 Max=3.18D-10 NDo=     1
 Linear equations converged to 1.000D-10 1.000D-09 after    24 iterations.
          There are     1 degrees of freedom in the 1st order CPHF.  IDoFFX=0 NUNeed=     1.
 End of Minotr F.D. properties file   721 does not exist.
 End of Minotr F.D. properties file   722 does not exist.
 End of Minotr F.D. properties file   788 does not exist.
   1 Symmetry operations used in ECPInt.
 ECPInt:  NShTT=   26565 NPrTT=   96561 LenC2=   23405 LenP2D=   57298.
 LDataN:  DoStor=T MaxTD1= 5 Len=  102
 Number of processors reduced to  28 by ecpmxn.
 Symmetrizing basis deriv contribution to polar:
 IMax=3 JMax=2 DiffMx= 0.00D+00
 G2DrvN: will do    51 centers at a time, making    1 passes.
 Calling FoFCou, ICntrl=  3107 FMM=F I1Cent=   0 AccDes= 0.00D+00.
 NEqPCM:  Using equilibrium solvation (IEInf=0, Eps=  24.8520, EpsInf=   1.8526)
 G2PCM: DoFxE=T DoFxN=T DoGrad=T DoDP/DQ/DG/TGxP=FFFF NFrqRd=   0 IEInf=0 SqF1=F DoCFld=F IF1Alg=4.
 G2DrvN: will do    51 centers at a time, making    1 passes.
 Calling FoFCou, ICntrl=  3107 FMM=F I1Cent=   0 AccDes= 0.00D+00.
 NEqPCM:  Using equilibrium solvation (IEInf=0, Eps=  24.8520, EpsInf=   1.8526)
 G2PCM: DoFxE=T DoFxN=F DoGrad=F DoDP/DQ/DG/TGxP=FFFF NFrqRd=   0 IEInf=0 SqF1=F DoCFld=F IF1Alg=4.
 G2DrvN: will do    51 centers at a time, making    1 passes.
 Calling FoFCou, ICntrl=  3107 FMM=F I1Cent=   0 AccDes= 0.00D+00.
 NEqPCM:  Using equilibrium solvation (IEInf=0, Eps=  24.8520, EpsInf=   1.8526)
 G2PCM: DoFxE=T DoFxN=F DoGrad=F DoDP/DQ/DG/TGxP=FFFF NFrqRd=   0 IEInf=0 SqF1=T DoCFld=F IF1Alg=4.
 End of G2Drv F.D. properties file   721 does not exist.
 End of G2Drv F.D. properties file   722 does not exist.
 End of G2Drv F.D. properties file   788 does not exist.
          IDoAtm=11111111111111111111111111111111111111111111111111
 NEqPCM:  Using equilibrium solvation (IEInf=0, Eps=  24.8520, EpsInf=   1.8526)
          Differentiating once with respect to electric field.
                with respect to dipole field.
          Differentiating once with respect to nuclear coordinates.
 CalDSu exits because no D1Ps are significant.
          There are   153 degrees of freedom in the 1st order CPHF.  IDoFFX=6 NUNeed=   153.
    150 vectors produced by pass  0 Test12= 3.73D-14 1.00D-09 XBig12= 7.08D+02 2.01D+01.
 AX will form   150 AO Fock derivatives at one time.
    150 vectors produced by pass  1 Test12= 3.73D-14 1.00D-09 XBig12= 3.69D+01 6.62D-01.
    150 vectors produced by pass  2 Test12= 3.73D-14 1.00D-09 XBig12= 5.49D-01 1.21D-01.
    150 vectors produced by pass  3 Test12= 3.73D-14 1.00D-09 XBig12= 4.79D-03 9.40D-03.
    150 vectors produced by pass  4 Test12= 3.73D-14 1.00D-09 XBig12= 2.72D-05 6.33D-04.
    150 vectors produced by pass  5 Test12= 3.73D-14 1.00D-09 XBig12= 1.13D-07 2.63D-05.
     87 vectors produced by pass  6 Test12= 3.73D-14 1.00D-09 XBig12= 3.80D-10 1.52D-06.
      6 vectors produced by pass  7 Test12= 3.73D-14 1.00D-09 XBig12= 9.45D-13 8.39D-08.
      3 vectors produced by pass  8 Test12= 3.73D-14 1.00D-09 XBig12= 2.35D-15 4.31D-09.
 InvSVY:  IOpt=1 It=  1 EMax= 1.42D-14
 Solved reduced A of dimension   996 with   153 vectors.
 Isotropic polarizability for W=    0.000000      560.26 Bohr**3.
 End of Minotr F.D. properties file   721 does not exist.
 End of Minotr F.D. properties file   722 does not exist.
 End of Minotr F.D. properties file   788 does not exist.
 This link is doing   153 degrees of freedom
 Form MO integral derivatives with frozen-active canonical formalism.
 CISSec: MDV=   17179847159
 Doing TD-HF/TD-DFT second derivatives, IDoFFX=6 IOneXC=4 IRadAn=         1.
 Frozen orbitals handled with amplitudes over full window.
 CISAX will form   153 AO SS matrices at one time.
    150 vectors produced by pass  0 Test12= 5.11D-14 1.00D-09 XBig12= 3.08D+02 1.27D+01.
 AX will form   150 AO Fock derivatives at one time.
    150 vectors produced by pass  1 Test12= 5.11D-14 1.00D-09 XBig12= 2.33D+02 9.88D+00.
    150 vectors produced by pass  2 Test12= 5.11D-14 1.00D-09 XBig12= 5.01D+00 1.14D+00.
    150 vectors produced by pass  3 Test12= 5.11D-14 1.00D-09 XBig12= 2.09D-02 1.51D-02.
    150 vectors produced by pass  4 Test12= 5.11D-14 1.00D-09 XBig12= 2.50D-04 2.28D-03.
    141 vectors produced by pass  5 Test12= 5.11D-14 1.00D-09 XBig12= 1.63D-06 1.34D-04.
     80 vectors produced by pass  6 Test12= 5.11D-14 1.00D-09 XBig12= 8.92D-09 7.72D-06.
     11 vectors produced by pass  7 Test12= 5.11D-14 1.00D-09 XBig12= 4.35D-11 5.07D-07.
      3 vectors produced by pass  8 Test12= 5.11D-14 1.00D-09 XBig12= 2.46D-13 3.12D-08.
      2 vectors produced by pass  9 Test12= 5.11D-14 1.00D-09 XBig12= 1.25D-15 2.59D-09.
 InvSVY:  IOpt=1 It=  1 EMax= 3.20D-14
 Solved reduced A of dimension   987 with   153 vectors.
 Tx.T =  4.84D-04 for pert.     1
 Tx.T =  3.84D-05 for pert.     3
 Tx.T =  9.39D-06 for pert.     2
 Tx.T =  6.51D-06 for pert.    37
 Tx.T = -4.19D-06 for pert.    40
 Tx.T = -3.43D-06 for pert.    36
 Tx.T =  2.97D-06 for pert.    54
 Tx.T = -2.82D-06 for pert.    15
 Tx.T = -2.78D-06 for pert.    57
 Tx.T = -2.64D-06 for pert.    66
 SavDET:  read IOETrn=   770 NScale= 10 NData=  16 NLR=1 NState=    5 NDeriv=    0 LETran=     100.
 SavDET: write IOETrn=   770 NScale= 10 NData=  16 NLR=1 NState=    5 NDeriv=  153 LETran=    2548.
 TDDxLx will form   153 C1x/S1x matrices at one time.
 Interchange theorem applied.
 D1PCM: PCM CHGder 1st derivatives, ID1Alg=3 FixD1E=F DoIter=F DoCFld=F I1PDM=6.

 **********************************************************************

            Population analysis using the SCF density.

 **********************************************************************

 Orbital symmetries:
       Occupied  (A) (A) (A) (A) (A) (A) (A) (A) (A) (A) (A) (A)
                 (A) (A) (A) (A) (A) (A) (A) (A) (A) (A) (A) (A)
                 (A) (A) (A) (A) (A) (A) (A) (A) (A) (A) (A) (A)
                 (A) (A) (A) (A) (A) (A) (A) (A) (A) (A) (A) (A)
                 (A) (A) (A) (A) (A) (A) (A) (A) (A) (A) (A) (A)
                 (A) (A) (A) (A) (A) (A) (A) (A) (A) (A) (A) (A)
                 (A) (A) (A) (A) (A) (A) (A) (A) (A) (A) (A) (A)
                 (A) (A) (A) (A) (A) (A) (A) (A) (A) (A) (A)
       Virtual   (A) (A) (A) (A) (A) (A) (A) (A) (A) (A) (A) (A)
                 (A) (A) (A) (A) (A) (A) (A) (A) (A) (A) (A) (A)
                 (A) (A) (A) (A) (A) (A) (A) (A) (A) (A) (A) (A)
                 (A) (A) (A) (A) (A) (A) (A) (A) (A) (A) (A) (A)
                 (A) (A) (A) (A) (A) (A) (A) (A) (A) (A) (A) (A)
                 (A) (A) (A) (A) (A) (A) (A) (A) (A) (A) (A) (A)
                 (A) (A) (A) (A) (A) (A) (A) (A) (A) (A) (A) (A)
                 (A) (A) (A) (A) (A) (A) (A) (A) (A) (A) (A) (A)
                 (A) (A) (A) (A) (A) (A) (A) (A) (A) (A) (A) (A)
                 (A) (A) (A) (A) (A) (A) (A) (A) (A) (A) (A) (A)
                 (A) (A) (A) (A) (A) (A) (A) (A) (A) (A) (A) (A)
                 (A) (A) (A) (A) (A) (A) (A) (A) (A) (A) (A) (A)
                 (A) (A) (A) (A) (A) (A) (A) (A) (A) (A) (A) (A)
                 (A) (A) (A) (A) (A) (A) (A) (A) (A) (A) (A) (A)
[...]
 431,0.00000012,0.00000191,-0.00001621,0.00000067,-0.00001861,-0.000013
 88,-0.00000814,0.00000093,0.00002703,-0.00000185,-0.00002504,-0.000022
 96,0.00001946,-0.00002289,-0.00000223,-0.00002324,0.00000086,0.0000108
 1,0.00000801,0.00000193,0.00000526,-0.00000652,-0.00000970,0.00000166,
 0.00000881,-0.00000333,0.00000421,-0.00001487,0.00000602,0.00001204,-0
 .00000114,-0.00000303,0.00000279,-0.00000181,0.00000016,0.00000512,-0.
 00000458,-0.00001121,-0.00001040,-0.00000531,0.00000539,-0.00000044,-0
 .00000245,0.00000054,0.00019059,0.00028261,-0.00001816,0.14640744,0.25
 394698,0.00005338,0.00002981,-0.00000720,0.00000365,0.00001389,-0.0004
 7510,-0.00006013,-0.00002867,0.00000319,0.00003711,0.00001585,0.000067
 33,0.00001415,-0.00003908,0.00001507,0.00000493,0.00004623,-0.00000452
 ,-0.00001555,-0.00003973,0.00000503,-0.00001839,-0.00001464,0.00003153
 ,-0.00003524,0.00004225,-0.00009480,-0.00003441,-0.00005286,-0.0003082
 8,0.00003608,0.00001452,0.00045132,-0.00002252,0.00006022,0.00016716,0
 .00001913,-0.00001201,-0.00007352,0.00006056,-0.00000839,0.00003631,0.
 00001111,-0.00001640,0.00000545,0.00001173,-0.00000138,-0.00002937,0.0
 0007873,-0.00001117,0.00006173,-0.00004927,-0.00000162,-0.00007450,-0.
 00006293,0.00005325,-0.00001632,0.00032845,-0.00000553,0.00785712,-0.0
 0002645,-0.00012355,-0.00114399,0.00061950,-0.00000840,0.00549237,0.00
 091460,0.00143055,0.00487295,0.00953405,0.01167188,-0.03726042,-0.0001
 0821,-0.00035649,0.00336887,-0.00076888,-0.00022650,-0.00255235,0.0000
 1991,-0.00001088,-0.00001118,0.00000827,0.00000474,-0.00000731,-0.0000
 0480,0.00000456,0.00001412,-0.00001282,-0.00000497,-0.00000881,0.00000
 820,-0.00000437,0.00001424,-0.00002343,0.00001166,-0.00000819,-0.00000
 018,-0.00000017,0.00000074,0.00000663,0.00000034,-0.00000428,-0.000004
 07,0.00000382,-0.00000183,0.00000079,-0.00000115,0.00001157,0.00000034
 ,-0.00000436,-0.00000817,0.00000132,-0.00000171,0.00000146,-0.00001530
 ,-0.00001006,0.00001116,-0.00001970,0.00000897,0.00002657,-0.00000025,
 0.00000628,0.00000255,-0.00000196,0.00000167,0.00000012,-0.00000818,0.
 00000126,0.00001035,0.00000933,0.00000593,-0.00000152,-0.00000153,-0.0
 0000548,-0.00000122,0.00001871,0.00006731,-0.00041327,-0.01054504,-0.0
 1274527,0.02566845,-0.00014162,-0.00021616,0.00001359,0.00019310,0.000
 82933,-0.00001981,-0.00014234,-0.00021594,0.00001119,0.00012919,-0.000
 03610,0.00000689,0.00008755,-0.00013870,-0.00000752,0.00011125,0.00017
 618,-0.00002110,-0.00007304,-0.00019167,0.00005138,-0.00012217,-0.0001
 3602,0.00000722,-0.00011293,0.00034222,0.00003431,-0.00012097,-0.00059
 595,-0.00003881,-0.00091252,0.00186567,0.00002844,-0.00006489,0.002070
 26,-0.00100685,-0.00003710,0.00095657,0.00049484,-0.00022376,0.0000123
 5,-0.00024025,0.00024616,-0.00023047,0.00011445,-0.00011783,-0.0002268
 0,0.00005606,0.00117161,0.00012647,-0.00016489,-0.00034000,-0.00003844
 ,-0.00017456,-0.00064691,0.00208265,0.00022966,-0.01066061,0.00320573,
 0.00064865,-0.00134324,-0.00323895,0.00035958,0.00084681,-0.00046367,-
 0.00007868,0.00189298,0.00166776,0.00029688,-0.00781838,-0.00165511,0.
 00085383,-0.34564622,0.01645741,0.01751965,-0.00073116,0.00017016,0.00
 000992,-0.00003832,0.00000745,0.00007975,0.00000582,0.00001050,-0.0000
 0883,0.00000677,0.00000346,0.00000122,0.00000654,0.00001123,0.00000846
 ,0.00000655,0.00000301,-0.00000261,-0.00005214,0.00001046,-0.00007231,
 -0.00000784,0.00000001,0.00000183,0.00002232,0.00000132,-0.00001846,-0
 .00001836,0.00001528,-0.00001413,-0.00000229,-0.00001087,0.00000022,0.
 00005873,-0.00000581,-0.00001135,0.00000283,-0.00000562,0.00000984,0.0
 0003170,-0.00000105,-0.00002629,0.00003046,-0.00019213,-0.00014696,0.0
 0000447,0.00000228,0.00000025,-0.00001403,0.00000966,0.00001781,-0.000
 01713,0.00000814,0.00005324,0.00004679,-0.00001275,-0.00001777,-0.0000
 0471,-0.00021756,0.00002771,-0.00010323,0.00005157,-0.00002580,0.00081
 585,-0.00024540,-0.00030747,0.36379764,-0.00012871,-0.00025277,0.00004
 092,-0.00034632,0.00073610,-0.00001182,-0.00013779,-0.00026327,-0.0000
 1495,-0.00008454,-0.00005394,-0.00002477,0.00002903,0.00012955,0.00001
 509,-0.00001754,-0.00017459,0.00000652,0.00006429,0.00014911,-0.000044
 06,0.00005654,0.00003081,-0.00000919,0.00004928,-0.00007467,0.00001451
 ,0.00013222,0.00009611,-0.00000436,-0.00013033,0.00097184,-0.00000975,
 0.00066309,-0.00332462,-0.00008059,0.00038174,-0.00089521,-0.00055702,
 0.00006224,-0.00002473,0.00001467,0.00001762,0.00011820,0.00000514,-0.
 00007610,0.00003740,-0.00004212,0.00021852,-0.00010305,0.00028908,-0.0
 0018790,0.00000504,-0.00024211,0.00060171,-0.00120587,0.00050526,-0.02
 291953,0.00699535,0.00133873,-0.00315266,-0.00380010,0.00040906,0.0001
 0411,-0.00096329,0.00002406,0.00166631,-0.00453558,0.00002868,0.028486
 44,0.00133555,-0.00163123,0.01564152,-0.05681080,-0.00084845,0.0013897
 6,0.00029041,0.00013307,-0.00003788,0.00000300,0.00008473,0.00001292,0
 .00001081,-0.00002379,0.00000312,0.00000284,0.00000637,0.00001616,0.00
 001174,0.00002247,0.00000281,0.00000218,-0.00000667,-0.00005562,0.0000
 0436,-0.00008041,0.00000598,0.00001056,0.00000189,-0.00001978,0.000000
 71,0.00001702,0.00001287,-0.00001461,0.00001042,0.00000154,0.00000793,
 0.00000450,0.00000633,-0.00000890,0.00000912,0.00001146,0.00002602,0.0
 0004662,0.00000855,0.00002772,0.00003349,-0.00002761,0.00007286,-0.000
 00080,-0.00002167,-0.00001560,0.00000920,0.00000032,0.00000772,-0.0000
 0625,-0.00002875,-0.00000205,0.00005792,0.00005749,0.00000550,-0.00001
 123,-0.00004149,0.00014210,-0.00002168,0.00004466,0.00012059,-0.000040
 69,-0.00033076,0.00116802,-0.00010538,-0.02207707,0.06026901,-0.000024
 60,-0.00005471,0.00000390,0.00002305,-0.00008027,0.00013015,0.00003959
 ,0.00010051,-0.00000246,0.00006043,0.00004333,0.00000351,0.00001610,-0
 .00007492,0.00001797,-0.00000096,0.00008768,0.00001005,-0.00002824,-0.
 00007447,0.00001090,-0.00002958,-0.00001530,0.00003616,-0.00004323,0.0
 0004017,0.00011409,-0.00003745,-0.00004425,-0.00036880,-0.00013312,-0.
 00006083,-0.00238963,0.00009656,0.00001796,0.00027824,0.00020531,-0.00
 078917,-0.00007420,0.00008339,0.00008925,0.00002917,0.00009736,-0.0000
 0933,0.00000396,0.00003712,0.00002792,-0.00000690,0.00003288,-0.000079
 74,0.00006693,-0.00008072,0.00002678,-0.00013436,-0.00035948,0.0006480
 8,-0.00034674,0.00118122,-0.00033495,0.00379602,0.00054117,0.00037835,
 0.00511646,-0.00013412,0.00012144,-0.00073045,0.00015131,0.00001595,0.
 00829712,0.00057952,0.00004122,0.00535205,0.01664618,-0.00071731,-0.03
 958944,0.00004253,-0.00008262,0.00006088,-0.00000046,-0.00000797,0.000
 01714,0.00000948,0.00000109,-0.00001250,0.00000388,0.00000087,-0.00000
 278,-0.00001419,-0.00000328,-0.00001561,-0.00000505,-0.00000113,-0.000
 00209,0.00001307,0.00000453,0.00002787,-0.00000092,-0.00000101,-0.0000
 0544,0.00001087,-0.00000004,-0.00000810,-0.00000773,0.00000773,-0.0000
 0395,0.00000004,-0.00000178,-0.00000815,-0.00001123,-0.00000904,-0.000
 02633,-0.00000356,0.00000875,0.00000098,-0.00003019,0.00000765,0.00001
 688,-0.00009727,0.00000029,-0.00003549,0.00001208,0.00002640,-0.000003
 93,0.00000097,0.00000024,-0.00001046,-0.00002229,0.00000156,0.00002359
 ,0.00002436,0.00002090,-0.00000003,-0.00000021,-0.00000804,-0.00002620
 ,-0.00003863,-0.00001008,-0.00088579,-0.00034143,-0.00008222,-0.005102
 24,-0.01852417,0.00079803,0.02659472,-0.00007461,-0.00001182,0.0000088
 2,0.00030991,0.00002919,-0.00006340,-0.00008651,-0.00002776,0.00000481
 ,-0.00011454,0.00009439,-0.00002618,0.00008626,-0.00020374,-0.00000701
 ,0.00003314,0.00026700,-0.00004026,-0.00012907,-0.00032793,0.00010600,
 -0.00008004,-0.00000295,-0.00001192,0.00004714,-0.00009244,0.00001891,
 0.00014752,0.00020690,0.00000239,-0.00016080,0.00031312,0.00002358,-0.
 00019271,-0.00016966,-0.00024410,0.00006955,-0.00004180,0.00021474,-0.
 00017188,0.00003014,-0.00011335,-0.00010897,0.00003473,-0.00006102,0.0
 0001454,0.00001268,0.00012720,-0.00012874,0.00006284,-0.00016346,0.000
 15135,-0.00000900,0.00019626,0.00017573,0.00004176,0.00002561,0.000809
 46,-0.00105155,0.00009960,-0.00082084,0.00089977,0.00052857,0.00148931
 ,-0.00437182,0.00111619,-0.01143279,0.00577052,-0.00255611,0.00324035,
 0.00049123,-0.00104049,-0.00070049,0.00052705,0.00014037,-0.43895467,0
 .02106063,-0.07727784,-0.00001031,-0.00000232,0.00002026,-0.00000998,-
 0.00000009,0.00001652,0.00000627,0.00000246,-0.00000576,-0.00001136,-0
 .00000142,-0.00001229,0.00000820,0.00000198,0.00000564,-0.00001695,-0.
 00000108,-0.00002131,-0.00002755,-0.00001129,0.00000618,0.00000916,-0.
 00000841,-0.00003075,-0.00001672,0.00000225,-0.00003683,0.00001184,-0.
 00002700,0.00000640,0.00002220,0.00001982,0.00001105,0.00000436,-0.000
 00374,-0.00001403,0.00004780,0.00003727,-0.00002928,0.00006689,-0.0000
 2976,-0.00005140,0.00001459,-0.00001053,-0.00000486,0.00000119,-0.0000
 0326,0.00000268,0.00001575,0.00000754,-0.00003113,-0.00003333,-0.00001
 679,0.00000759,-0.00000497,-0.00000658,-0.00000234,-0.00003477,0.00076
 848,-0.00053693,0.00016541,-0.00005597,-0.00006814,0.00003293,0.000091
 96,0.00003080,0.45510565,0.00000221,0.00001750,-0.00000591,0.00001220,
 -0.00013908,0.00001254,0.00000754,0.00002854,-0.00000095,0.00004440,0.
 00008414,-0.00000237,0.00000136,-0.00005389,-0.00000144,0.00001744,0.0
 0007603,-0.00000400,-0.00003226,-0.00007293,0.00002068,-0.00003259,-0.
 00001069,0.00000198,-0.00001063,0.00001896,-0.00000154,0.00001590,-0.0
 0003009,0.00000127,-0.00003097,-0.00005554,-0.00001990,-0.00002602,0.0
 0000530,0.00003843,0.00000703,-0.00000159,-0.00001032,0.00001021,-0.00
 000219,0.00000840,0.00000646,0.00000055,-0.00000299,0.00000338,0.00000
 065,-0.00001134,-0.00002462,-0.00000560,0.00001244,0.00000638,0.000000
 40,-0.00000190,0.00001132,-0.00002234,-0.00001745,-0.00020216,0.000101
 72,0.00006981,0.00001168,-0.00001620,-0.00013691,0.00155333,0.00165487
 ,-0.00054382,0.03423638,0.00010363,0.00670405,0.00030461,-0.00511128,0
 .00023009,0.00130653,0.00056307,-0.00031273,0.01682294,-0.06566432,0.0
 1460150,0.00000159,0.00000289,-0.00000432,-0.00000889,-0.00000265,0.00
 001092,0.00000048,0.00000125,-0.00000223,-0.00001398,-0.00000490,-0.00
 000879,0.00000029,-0.00000134,0.00000022,0.00000277,0.00000444,0.00000
 617,-0.00000181,-0.00000204,-0.00000090,0.00000874,-0.00000091,-0.0000
 0661,-0.00000633,0.00000662,-0.00000615,0.00000025,-0.00000223,-0.0000
 0028,-0.00000103,0.00000098,0.00000018,0.00000055,0.00000009,-0.000001
 22,-0.00000242,-0.00000147,0.00000236,-0.00000232,0.00000297,0.0000057
 4,0.00000165,-0.00000009,-0.00000005,0.00000055,-0.00000017,-0.0000004
 3,0.00000034,-0.00000038,-0.00000152,-0.00000082,0.00000119,0.00000075
 ,0.00000052,0.00000300,-0.00000072,-0.00099088,-0.00015256,0.00006882,
 0.00009034,0.00009172,-0.00001629,0.00011235,-0.00034426,-0.00002481,-
 0.02945672,0.06261284,0.00005712,-0.00003879,-0.00001710,-0.00026951,0
 .00002907,0.00010237,0.00007183,0.00001075,-0.00003047,-0.00004784,-0.
 00019975,0.00002556,-0.00010073,0.00030926,0.00001686,-0.00009667,-0.0
 0039849,0.00005361,0.00017889,0.00044261,-0.00013995,0.00018383,0.0000
 6559,0.00000636,0.00000098,-0.00007822,-0.00001872,-0.00002257,0.00008
 829,-0.00001900,0.00012833,-0.00063201,-0.00009365,0.00019208,0.000115
 49,0.00013421,-0.00007218,0.00002563,-0.00013646,0.00011388,-0.0000200
 2,0.00007578,0.00008146,-0.00002936,0.00006104,-0.00000894,-0.00000775
 ,-0.00010135,0.00012881,-0.00004086,0.00013028,-0.00013668,0.00000336,
 -0.00017173,-0.00016574,-0.00002062,-0.00000514,-0.00017350,0.00140378
 ,-0.00006757,0.00011204,-0.00052287,-0.00055809,0.00066756,0.00184183,
 -0.00103105,0.01007348,-0.01029089,-0.00527981,-0.00204260,0.00017666,
 0.00315069,0.00089743,-0.00165296,0.00156897,-0.10541399,0.02451003,-0
 .02043657,0.00000485,-0.00000144,-0.00000990,0.00002129,0.00001008,-0.
 00001713,-0.00000509,0.00000564,-0.00000031,0.00000351,-0.00000710,0.0
 0001752,-0.00000709,-0.00000694,-0.00000932,0.00001165,0.00000350,0.00
 001549,0.00002510,0.00001013,-0.00000600,-0.00003072,0.00000604,0.0000
 4366,0.00003072,-0.00002038,0.00004418,-0.00000987,0.00002500,-0.00000
 407,-0.00001836,-0.00001706,-0.00000825,-0.00000464,0.00000255,0.00001
 154,-0.00003016,-0.00003127,0.00001905,-0.00004379,0.00002397,0.000036
 11,-0.00001354,0.00001001,0.00000499,-0.00000298,0.00000336,-0.0000019
 1,-0.00001558,-0.00000306,0.00002876,0.00002769,0.00001333,-0.00000720
 ,0.00000328,0.00000327,0.00000142,-0.00000020,0.00023741,0.00010826,-0
 .00007995,-0.00002702,-0.00056434,-0.00001161,-0.00008693,-0.00026403,
 0.08449433,-0.01242890,0.02503572,0.00007981,0.00003520,-0.00001076,-0
 .00036390,-0.00007188,0.00001103,0.00007308,0.00001871,-0.00000204,0.0
 0009157,-0.00003598,0.00001217,-0.00010732,0.00021669,0.00000438,-0.00
 005507,-0.00027538,0.00003428,0.00012883,0.00033368,-0.00010135,0.0001
 0900,0.00003174,0.00000425,-0.00002705,0.00001641,-0.00001423,-0.00008
 554,-0.00009700,0.00001271,0.00006285,-0.00028015,-0.00002361,0.000174
 52,0.00012226,0.00015987,-0.00004780,0.00002816,-0.00015074,0.00010972
 ,-0.00002020,0.00007626,0.00006224,-0.00002415,0.00004548,-0.00001405,
 -0.00001027,-0.00007847,0.00008975,-0.00003539,0.00010235,-0.00010735,
 -0.00000002,-0.00013178,-0.00013136,-0.00003695,-0.00000690,-0.0003673
 5,0.00070379,-0.00010282,0.00095036,0.00001969,0.00019958,-0.00085713,
 0.00410414,0.00074401,0.01436555,0.00979293,-0.00605930,-0.00028557,0.
 00244548,-0.00056299,0.00012480,-0.00076804,-0.00030200,-0.19398291,-0
 .16925339,0.06719695,0.00001324,0.00000106,-0.00002549,0.00000555,-0.0
 0000142,-0.00000941,-0.00000653,-0.00000080,0.00000348,0.00000654,-0.0
 0000093,0.00000817,-0.00000576,-0.00000113,-0.00000210,0.00001492,0.00
 000245,0.00001964,0.00002349,0.00000830,-0.00000250,-0.00001675,0.0000
 0592,0.00003065,0.00002160,-0.00000922,0.00003460,-0.00000966,0.000022
 81,-0.00000385,-0.00001819,-0.00001283,-0.00000780,-0.00000459,0.00000
 418,0.00001107,-0.00003077,-0.00002693,0.00001884,-0.00004170,0.000023
 49,0.00003050,-0.00001292,0.00000799,0.00000339,-0.00000170,0.00000321
 ,-0.00000200,-0.00001046,-0.00000161,0.00002138,0.00002288,0.00001332,
 -0.00000630,0.00000466,0.00000566,0.00000187,0.00016251,0.00015240,-0.
 00001078,-0.00029819,-0.00094009,0.00041420,-0.00003430,-0.00001851,0.
 00002956,-0.00876390,-0.02375723,0.01131437,0.18899039,0.00002759,-0.0
 0001498,0.00000003,0.00003884,0.00000593,-0.00001845,0.00001960,-0.000
 02405,-0.00000768,-0.00000841,-0.00016751,0.00002953,-0.00001576,0.000
 11848,-0.00000622,-0.00001703,-0.00018134,0.00002353,0.00008608,0.0002
 0945,-0.00007036,0.00004264,-0.00000893,0.00000779,-0.00002466,0.00008
 430,-0.00001786,-0.00013016,-0.00014279,0.00001138,0.00019982,-0.00022
 053,-0.00003977,0.00013275,0.00011092,0.00017825,-0.00005263,0.0000405
 0,-0.00015304,0.00011750,-0.00002393,0.00007590,0.00008365,-0.00002372
 ,0.00004394,-0.00001395,-0.00000976,-0.00009505,0.00008296,-0.00003973
 ,0.00012386,-0.00010613,0.00000345,-0.00014073,-0.00011864,-0.00002547
 ,-0.00001340,-0.00029613,0.00117168,-0.00002493,-0.00081401,-0.0012266
 6,-0.00008625,0.00448519,-0.00068456,0.00064658,-0.01640273,-0.0265201
 4,0.00929453,-0.00324339,0.00299025,-0.00102244,0.00015382,-0.00111201
 ,-0.00058894,-0.16766977,-0.28857677,0.10006133,0.00000124,0.00000338,
 -0.00000153,0.00000428,-0.00000158,-0.00000553,-0.00000390,0.00000003,
 0.00000360,0.00000524,-0.00000037,0.00000572,-0.00000396,-0.00000138,-
 0.00000283,-0.00000185,0.00000406,-0.00000086,0.00001889,0.00000807,-0
 .00000272,-0.00000208,0.00000642,0.00002024,0.00000905,0.,0.00002622,-
 0.00000818,0.00001939,-0.00000366,-0.00001518,-0.00001463,-0.00000789,
 -0.00000303,0.00000310,0.00000955,-0.00003220,-0.00002680,0.00002087,-
 0.00004431,0.00001956,0.00003510,-0.00000986,0.00000604,0.00000294,-0.
 00000020,0.00000245,-0.00000235,-0.00001067,-0.00000375,0.00002159,0.0
 0002357,0.00001159,-0.00000517,0.00000335,0.00000403,0.00000224,-0.000
 01580,0.00011430,0.00000961,0.00085430,0.00003145,0.00036152,-0.000057
 23,0.00007878,0.00005058,0.00517171,0.00631538,-0.00281393,0.17755981,
 0.30768839,0.00006893,0.00002630,0.00000683,-0.00013927,0.00006445,-0.
 00011596,0.00001827,-0.00005873,-0.00001153,-0.00010589,-0.00021200,0.
 00000125,-0.00009585,0.00031344,-0.00000047,-0.00011557,-0.00042188,0.
 00003626,0.00018632,0.00045704,-0.00013751,0.00021061,0.00008631,-0.00
 000776,0.00003022,-0.00013586,-0.00000133,0.00001074,0.00017068,0.0000
 2738,0.00016871,-0.00062238,-0.00018066,0.00017452,0.00006513,0.000074
 75,-0.00004217,0.00001720,-0.00007514,0.00004242,-0.00000970,0.0000309
 3,0.00002280,-0.00000888,0.00003615,-0.00001552,-0.00000628,-0.0000404
 7,0.00005899,-0.00001215,0.00006014,-0.00007416,-0.00000544,-0.0000875
 9,-0.00010442,-0.00002842,0.00003247,-0.00104879,0.00088816,0.00012641
 ,0.00073799,-0.00158459,0.00134434,0.00143636,0.00131290,0.00281107,-0
 .00012458,-0.01444839,-0.00431847,-0.00175214,0.00034499,-0.00080971,0
 .00026879,-0.00036078,-0.00053705,0.07804359,0.12811459,-0.04318909,0.
 00000838,-0.00000250,-0.00002321,0.00000764,-0.00000209,-0.00000901,-0
 .00000720,0.00000215,0.00000154,0.00000836,0.00000015,0.00001298,-0.00
 000212,-0.00000335,-0.00000191,-0.00000473,0.00000595,-0.00000254,0.00
 002310,0.00000827,0.00000437,-0.00003689,0.00000559,0.00004440,0.00003
 483,-0.00002639,0.00004556,-0.00000851,0.00002302,-0.00000167,-0.00001
 420,-0.00001059,-0.00000412,-0.00000448,0.00000224,0.00000743,-0.00001
 129,-0.00001624,0.00000610,-0.00001837,0.00001301,0.00000985,-0.000011
 96,0.00000037,0.00000218,-0.00000108,0.00000144,-0.00000162,-0.0000087
 4,0.00000248,0.00001758,0.00001500,0.00000652,-0.00000452,0.00000315,0
 .00000477,0.00000172,0.00000577,-0.00000617,-0.00057546,-0.00014875,0.
 00022238,-0.00002406,0.00000337,-0.00002235,0.00004731,-0.00476431,-0.
 00821955,-0.00169332,-0.07292787,-0.10593484,0.04706520\\-0.00000088,-
 0.00000010,-0.00000176,-0.00000013,0.00000130,-0.00000111,0.00000044,-
 0.00000001,-0.00000163,0.00000049,0.00000034,-0.00000049,0.00000015,0.
 00000013,-0.00000079,-0.00000022,0.00000024,-0.00000058,-0.00000025,0.
 00000035,-0.00000051,0.00000023,-0.00000037,-0.00000030,-0.00000034,-0
 .00000023,0.00000016,0.00000024,0.00000012,0.00000007,0.00000004,-0.00
 000072,-0.00000074,-0.00000020,-0.00000046,0.00000165,0.00000184,0.000
 00084,0.00000060,0.00000204,0.00000089,0.00000029,0.00000017,-0.000000
 62,0.00000178,0.00000016,-0.00000007,0.00000288,-0.00000050,-0.0000001
 4,0.00000160,-0.00000092,0.,0.00000170,-0.00000056,0.00000076,0.000001
 20,-0.00000068,0.00000007,0.00000012,-0.00000023,0.00000020,-0.0000006
 6,-0.00000024,0.,-0.00000100,-0.00000009,0.00000089,-0.00000081,0.0000
 0010,-0.00000044,0.00000027,0.00000008,-0.00000022,0.00000037,-0.00000
 023,0.00000026,-0.00000056,-0.00000082,-0.00000002,-0.00000184,-0.0000
 0099,0.,-0.00000188,-0.00000108,-0.00000002,-0.00000130,0.00000032,-0.
 00000007,-0.00000205,0.00000096,0.00000002,-0.00000143,0.00000058,-0.0
 0000010,-0.00000195,-0.00000027,-0.00000074,-0.00000127,0.00000009,-0.
 00000008,-0.00000116,-0.00000034,-0.00000005,-0.00000057,0.00000004,-0
 .00000034,0.00000022,0.00000035,0.00000027,0.00000063,0.00000138,-0.00
 000050,0.00000142,0.00000058,-0.00000003,0.00000099,0.00000057,-0.0000
 0027,0.00000096,0.00000096,0.00000009,0.00000220,0.00000015,0.,0.00000
 272,-0.00000144,-0.00000005,0.00000194,-0.00000105,0.00000044,0.000002
 43,-0.00000103,-0.00000049,0.00000061,0.00000010,-0.00000040,-0.000001
 53,-0.00000003,-0.00000012,0.00000046,-0.00000027,0.00000011,0.0000007
 3,0.00000037,-0.00000024,-0.00000144,0.00000037,-0.00000036,-0.0000006
 5\\\@


 ALL PAPERS THAT YOU SAVE WILL NEVER BE NEEDED UNTIL
 SUCH TIME AS THEY ARE DISPOSED OF, WHEN THEY BECOME
 ESSENTIAL.

           -- JOHN CORCORAN IN
              PAUL DICKSON'S "THE OFFICIAL RULES"
 Job cpu time:      17 days 20 hours 51 minutes 52.0 seconds.
 Elapsed time:       0 days  6 hours 45 minutes 14.6 seconds.
 File lengths (MBytes):  RWF=   4952 Int=      0 D2E=      0 Chk=    102 Scr=      1
 Normal termination of Gaussian 16 at Thu Dec 25 07:42:28 2025.
