 Entering Gaussian System, Link 0=g16
 Initial command:
 /home/users/ntu/xiaogan4/Softwares/g16/l1.exe "/scratch/users/ntu/xiaogan4/g16scratch/Gau-3707236.inp" -scrdir="/scratch/users/ntu/xiaogan4/g16scratch/"
 Entering Link 1 = /home/users/ntu/xiaogan4/Softwares/g16/l1.exe PID=   3707237.
  
 Copyright (c) 1988,1990,1992,1993,1995,1998,2003,2009,2016,
            Gaussian, Inc.  All Rights Reserved.
  
 This is part of the Gaussian(R) 16 program.  It is based on
 the Gaussian(R) 09 system (copyright 2009, Gaussian, Inc.),
 the Gaussian(R) 03 system (copyright 2003, Gaussian, Inc.),
 the Gaussian(R) 98 system (copyright 1998, Gaussian, Inc.),
 the Gaussian(R) 94 system (copyright 1995, Gaussian, Inc.),
 the Gaussian 92(TM) system (copyright 1992, Gaussian, Inc.),
 the Gaussian 90(TM) system (copyright 1990, Gaussian, Inc.),
 the Gaussian 88(TM) system (copyright 1988, Gaussian, Inc.),
 the Gaussian 86(TM) system (copyright 1986, Carnegie Mellon
 University), and the Gaussian 82(TM) system (copyright 1983,
 Carnegie Mellon University). Gaussian is a federally registered
 trademark of Gaussian, Inc.
  
 This software contains proprietary and confidential information,
 including trade secrets, belonging to Gaussian, Inc.
  
 This software is provided under written license and may be
 used, copied, transmitted, or stored only in accord with that
 written license.
  
 The following legend is applicable only to US Government
 contracts under FAR:
  
                    RESTRICTED RIGHTS LEGEND
  
 Use, reproduction and disclosure by the US Government is
 subject to restrictions as set forth in subparagraphs (a)
 and (c) of the Commercial Computer Software - Restricted
 Rights clause in FAR 52.227-19.
  
 Gaussian, Inc.
 340 Quinnipiac St., Bldg. 40, Wallingford CT 06492
  
  
 ---------------------------------------------------------------
 Warning -- This program may not be used in any manner that
 competes with the business of Gaussian, Inc. or will provide
 assistance to any competitor of Gaussian, Inc.  The licensee
 of this program is prohibited from giving any competitor of
 Gaussian, Inc. access to this program.  By using this program,
 the user acknowledges that Gaussian, Inc. is engaged in the
 business of creating and licensing software in the field of
 computational chemistry and represents and warrants to the
 licensee that it is not a competitor of Gaussian, Inc. and that
 it will not use this program in any manner prohibited above.
 ---------------------------------------------------------------
  

 Cite this work as:
 Gaussian 16, Revision A.03,
 M. J. Frisch, G. W. Trucks, H. B. Schlegel, G. E. Scuseria, 
 M. A. Robb, J. R. Cheeseman, G. Scalmani, V. Barone, 
 G. A. Petersson, H. Nakatsuji, X. Li, M. Caricato, A. V. Marenich, 
 J. Bloino, B. G. Janesko, R. Gomperts, B. Mennucci, H. P. Hratchian, 
 J. V. Ortiz, A. F. Izmaylov, J. L. Sonnenberg, D. Williams-Young, 
 F. Ding, F. Lipparini, F. Egidi, J. Goings, B. Peng, A. Petrone, 
 T. Henderson, D. Ranasinghe, V. G. Zakrzewski, J. Gao, N. Rega, 
 G. Zheng, W. Liang, M. Hada, M. Ehara, K. Toyota, R. Fukuda, 
 J. Hasegawa, M. Ishida, T. Nakajima, Y. Honda, O. Kitao, H. Nakai, 
 T. Vreven, K. Throssell, J. A. Montgomery, Jr., J. E. Peralta, 
 F. Ogliaro, M. J. Bearpark, J. J. Heyd, E. N. Brothers, K. N. Kudin, 
 V. N. Staroverov, T. A. Keith, R. Kobayashi, J. Normand, 
 K. Raghavachari, A. P. Rendell, J. C. Burant, S. S. Iyengar, 
 J. Tomasi, M. Cossi, J. M. Millam, M. Klene, C. Adamo, R. Cammi, 
 J. W. Ochterski, R. L. Martin, K. Morokuma, O. Farkas, 
 J. B. Foresman, and D. J. Fox, Gaussian, Inc., Wallingford CT, 2016.
 
 ******************************************
 Gaussian 16:  ES64L-G16RevA.03 25-Dec-2016
                26-Dec-2025 
 ******************************************
 %nprocshared=64
 Will use up to   64 processors via shared memory.
 %mem=128GB
 %oldchk=06C_Si_1_C_C2_CC_N__CC_C2C_C3_C__m062x_def2SVP_ethanol.chk
 %chk=07C_Si_1_C_C2_CC_N__CC_C2C_C3_C__m062x_def2SVP_ethanol.chk
 Copying data from "06C_Si_1_C_C2_CC_N__CC_C2C_C3_C__m062x_def2SVP_ethanol.chk" to current chk file "07C_Si_1_C_C2_CC_N__CC_C2C_C3_C__m062x_def2SVP_ethanol.chk"
 IOpt=  2 FromEx=T IUOpen= 4 IOptOp= 5 NList=   0 IFRang= 0 IUIn= 4 IUOut= 2.
 ----------------------------------------------------------------------
 # m062x/def2SVP TD=(NStates=5, Root=1) SCRF=(SMD, solvent=Ethanol) geo
 m=check guess=read
 ----------------------------------------------------------------------
 1/29=2,38=1,172=1/1;
 2/12=2,40=1/2;
 3/5=43,7=101,11=9,14=-4,25=1,30=1,70=32201,72=4,74=-55,116=-2/1,2,3,8;
 4/5=1/1;
 5/5=2,38=6,53=4/2;
 8/6=1,10=1,107=1,108=5/1;
 9/8=1,41=5,42=1,70=2/14;
 6/7=2,8=2,9=2,10=2/1;
 99/5=1,9=1/99;
 ---------------------------------
 Step7 De-excitation m062x/def2SVP
 ---------------------------------
 Structure from the checkpoint file:  "07C_Si_1_C_C2_CC_N__CC_C2C_C3_C__m062x_def2SVP_ethanol.chk"
 Charge =  1 Multiplicity = 1
 Redundant internal coordinates found in file.  (old form).
 C,0,3.6749728508,0.0284892614,-1.8262163283
 Si,0,2.7239412141,0.0185279779,-0.2057863726
 C,0,3.9350479576,0.0160883253,1.230200075
 C,0,1.563964968,1.4889083665,-0.103122013
 C,0,2.1039057975,2.7707634519,-0.1039568846
 C,0,1.3051900912,3.9328017167,-0.0315330836
 N,0,1.8622314308,5.1819516174,-0.0791802096
 C,0,-0.090021126,3.7527352808,0.0462176477
 C,0,-0.6444554558,2.4852381344,0.0445354142
 C,0,0.1476917163,1.3042823797,-0.0306852519
 C,0,-0.4904597895,0.0076598058,-0.0124892346
 C,0,-1.9719026599,0.0027625012,0.0540227275
 C,0,-2.6265762353,-0.0046489791,1.3261717102
 C,0,-1.8364957063,-0.0075211291,2.5826326985
 C,0,-4.0547740045,-0.0092393448,1.3676572134
 C,0,-4.8014759984,-0.0067180311,0.2281574728
 C,0,-4.1410347725,0.000744009,-1.0525202659
 N,0,-4.8537724777,0.0032508071,-2.1607450023
 C,0,-2.71128667,0.0053729854,-1.1043444185
 C,0,0.1557687963,-1.2847500608,-0.0418152582
 C,0,1.573163005,-1.4598952828,-0.1158523629
 C,0,2.1210952274,-2.7382997186,-0.1277447656
 C,0,1.3296555224,-3.9058829446,-0.0653197157
 C,0,-0.066646223,-3.7352107307,0.0140386395
 C,0,-0.628983542,-2.4712316045,0.0232777871
 N,0,1.8944857692,-5.1510694079,-0.1237579794
 H,0,4.3167219883,0.92120298,-1.8945895815
 H,0,4.3222411084,-0.8596045599,-1.9022937242
 H,0,2.9886775481,0.0300841123,-2.6867175203
 H,0,4.5859957292,-0.8715909209,1.1887255067
 H,0,3.4038063624,0.0102916738,2.1941546911
 H,0,4.5805020467,0.9080937195,1.1963976652
 H,0,3.1894947877,2.9063605854,-0.1616796431
 H,0,2.8521262286,5.2638989067,0.123226657
 H,0,1.2952561782,5.9625114805,0.2318341125
 H,0,-0.738163997,4.6299006511,0.1063978203
 H,0,-1.7310489121,2.4095504999,0.1043664996
 H,0,-2.4830525748,-0.0134441789,3.4675721513
 H,0,-1.175003969,0.8749215208,2.617971637
 H,0,-1.169267262,-0.8859031218,2.6103554169
 H,0,-4.5480037962,-0.0148838825,2.3405186361
 H,0,-5.8917217675,-0.0102085436,0.2579181259
 H,0,-4.4022314477,0.0085119469,-3.0729994341
 H,0,-5.8707772805,-0.0000021618,-2.1288671375
 H,0,-2.220974096,0.0110085655,-2.0790105152
 H,0,3.2075050344,-2.8666222026,-0.1866548654
 H,0,-0.7092925431,-4.6168927993,0.0666983584
 H,0,-1.716023151,-2.4028417057,0.0837998401
 H,0,2.8848973315,-5.2285769931,0.0778680461
 H,0,1.3324327677,-5.9378199586,0.1805180178
 Recover connectivity data from disk.
                           ----------------------------
                           !    Current Parameters    !
                           ! (Angstroms and Degrees)  !
 --------------------------                            --------------------------
 ! Name  Definition              Value                                          !
 --------------------------------------------------------------------------------
 ! R1    R(1,2)                  1.8789                                         !
 ! R2    R(1,27)                 1.1016                                         !
 ! R3    R(1,28)                 1.1016                                         !
 ! R4    R(1,29)                 1.1007                                         !
 ! R5    R(2,3)                  1.8785                                         !
 ! R6    R(2,4)                  1.8757                                         !
 ! R7    R(2,21)                 1.8757                                         !
 ! R8    R(3,30)                 1.1016                                         !
 ! R9    R(3,31)                 1.1007                                         !
 ! R10   R(3,32)                 1.1016                                         !
 ! R11   R(4,5)                  1.3909                                         !
 ! R12   R(4,10)                 1.4301                                         !
 ! R13   R(5,6)                  1.4119                                         !
 ! R14   R(5,33)                 1.0955                                         !
 ! R15   R(6,7)                  1.3686                                         !
 ! R16   R(6,8)                  1.4089                                         !
 ! R17   R(7,34)                 1.0137                                         !
 ! R18   R(7,35)                 1.0136                                         !
 ! R19   R(8,9)                  1.3835                                         !
 ! R20   R(8,36)                 1.0923                                         !
 ! R21   R(9,10)                 1.424                                          !
 ! R22   R(9,37)                 1.0909                                         !
 ! R23   R(10,11)                1.4453                                         !
 ! R24   R(11,12)                1.4829                                         !
 ! R25   R(11,20)                1.4453                                         !
 ! R26   R(12,13)                1.4307                                         !
 ! R27   R(12,19)                1.3742                                         !
 ! R28   R(13,14)                1.4842                                         !
 ! R29   R(13,15)                1.4288                                         !
 ! R30   R(14,38)                1.096                                          !
 ! R31   R(14,39)                1.1034                                         !
 ! R32   R(14,40)                1.1034                                         !
 ! R33   R(15,16)                1.3624                                         !
 ! R34   R(15,41)                1.0908                                         !
 ! R35   R(16,17)                1.441                                          !
 ! R36   R(16,42)                1.0907                                         !
 ! R37   R(17,18)                1.3176                                         !
 ! R38   R(17,19)                1.4307                                         !
 ! R39   R(18,43)                1.0179                                         !
 ! R40   R(18,44)                1.0175                                         !
 ! R41   R(19,45)                1.0911                                         !
 ! R42   R(20,21)                1.4301                                         !
 ! R43   R(20,25)                1.424                                          !
 ! R44   R(21,22)                1.3909                                         !
 ! R45   R(22,23)                1.4119                                         !
 ! R46   R(22,46)                1.0955                                         !
 ! R47   R(23,24)                1.4089                                         !
 ! R48   R(23,26)                1.3686                                         !
 ! R49   R(24,25)                1.3835                                         !
 ! R50   R(24,47)                1.0923                                         !
 ! R51   R(25,48)                1.0909                                         !
 ! R52   R(26,49)                1.0137                                         !
 ! R53   R(26,50)                1.0136                                         !
 ! A1    A(2,1,27)             110.6527                                         !
 ! A2    A(2,1,28)             110.6525                                         !
 ! A3    A(2,1,29)             111.0172                                         !
 ! A4    A(27,1,28)            107.8635                                         !
 ! A5    A(27,1,29)            108.2735                                         !
 ! A6    A(28,1,29)            108.2734                                         !
 ! A7    A(1,2,3)              109.4472                                         !
 ! A8    A(1,2,4)              110.8593                                         !
 ! A9    A(1,2,21)             110.8593                                         !
 ! A10   A(3,2,4)              110.9707                                         !
 ! A11   A(3,2,21)             110.9698                                         !
 ! A12   A(4,2,21)             103.6416                                         !
 ! A13   A(2,3,30)             110.6861                                         !
 ! A14   A(2,3,31)             110.9965                                         !
 ! A15   A(2,3,32)             110.6868                                         !
 ! A16   A(30,3,31)            108.2973                                         !
 ! A17   A(30,3,32)            107.7661                                         !
 ! A18   A(31,3,32)            108.2974                                         !
 ! A19   A(2,4,5)              118.839                                          !
 ! A20   A(2,4,10)             120.9324                                         !
 ! A21   A(5,4,10)             120.228                                          !
 ! A22   A(4,5,6)              122.6055                                         !
 ! A23   A(4,5,33)             119.9177                                         !
 ! A24   A(6,5,33)             117.4768                                         !
 ! A25   A(5,6,7)              121.2767                                         !
 ! A26   A(5,6,8)              117.2473                                         !
 ! A27   A(7,6,8)              121.4423                                         !
 ! A28   A(6,7,34)             117.6655                                         !
 ! A29   A(6,7,35)             117.679                                          !
 ! A30   A(34,7,35)            115.005                                          !
 ! A31   A(6,8,9)              120.9228                                         !
 ! A32   A(6,8,36)             119.2094                                         !
 ! A33   A(9,8,36)             119.8677                                         !
 ! A34   A(8,9,10)             122.4752                                         !
 ! A35   A(8,9,37)             117.5609                                         !
 ! A36   A(10,9,37)            119.964                                          !
 ! A37   A(4,10,9)             116.5202                                         !
 ! A38   A(4,10,11)            123.6239                                         !
 ! A39   A(9,10,11)            119.8502                                         !
 ! A40   A(10,11,12)           116.3994                                         !
 ! A41   A(10,11,20)           127.1985                                         !
 ! A42   A(12,11,20)           116.4003                                         !
 ! A43   A(11,12,13)           119.8024                                         !
 ! A44   A(11,12,19)           119.9787                                         !
 ! A45   A(13,12,19)           120.2188                                         !
 ! A46   A(12,13,14)           120.6066                                         !
 ! A47   A(12,13,15)           118.8956                                         !
 ! A48   A(14,13,15)           120.4978                                         !
 ! A49   A(13,14,38)           111.6853                                         !
 ! A50   A(13,14,39)           110.1626                                         !
 ! A51   A(13,14,40)           110.1635                                         !
 ! A52   A(38,14,39)           109.3977                                         !
 ! A53   A(38,14,40)           109.3987                                         !
 ! A54   A(39,14,40)           105.8621                                         !
 ! A55   A(13,15,16)           121.5719                                         !
 ! A56   A(13,15,41)           118.5488                                         !
 ! A57   A(16,15,41)           119.8792                                         !
 ! A58   A(15,16,17)           119.4837                                         !
 ! A59   A(15,16,42)           121.6721                                         !
 ! A60   A(17,16,42)           118.8441                                         !
 ! A61   A(16,17,18)           119.9737                                         !
 ! A62   A(16,17,19)           119.3564                                         !
 ! A63   A(18,17,19)           120.6699                                         !
 ! A64   A(17,18,43)           120.9195                                         !
 ! A65   A(17,18,44)           120.9505                                         !
 ! A66   A(43,18,44)           118.13                                           !
 ! A67   A(12,19,17)           120.4735                                         !
 ! A68   A(12,19,45)           120.7451                                         !
 ! A69   A(17,19,45)           118.7814                                         !
 ! A70   A(11,20,21)           123.6235                                         !
 ! A71   A(11,20,25)           119.8504                                         !
 ! A72   A(21,20,25)           116.5204                                         !
 ! A73   A(2,21,20)            120.9328                                         !
 ! A74   A(2,21,22)            118.8388                                         !
 ! A75   A(20,21,22)           120.2279                                         !
 ! A76   A(21,22,23)           122.6056                                         !
 ! A77   A(21,22,46)           119.9181                                         !
 ! A78   A(23,22,46)           117.4763                                         !
 ! A79   A(22,23,24)           117.2474                                         !
 ! A80   A(22,23,26)           121.2764                                         !
 ! A81   A(24,23,26)           121.4425                                         !
 ! A82   A(23,24,25)           120.9226                                         !
 ! A83   A(23,24,47)           119.2094                                         !
 ! A84   A(25,24,47)           119.8678                                         !
 ! A85   A(20,25,24)           122.4751                                         !
 ! A86   A(20,25,48)           119.9637                                         !
 ! A87   A(24,25,48)           117.5612                                         !
 ! A88   A(23,26,49)           117.666                                          !
 ! A89   A(23,26,50)           117.6798                                         !
 ! A90   A(49,26,50)           115.0053                                         !
 ! D1    D(27,1,2,3)           -59.7486                                         !
 ! D2    D(27,1,2,4)            62.9832                                         !
 ! D3    D(27,1,2,21)          177.5208                                         !
 ! D4    D(28,1,2,3)            59.75                                           !
 ! D5    D(28,1,2,4)          -177.5182                                         !
 ! D6    D(28,1,2,21)          -62.9806                                         !
 ! D7    D(29,1,2,3)          -179.9994                                         !
 ! D8    D(29,1,2,4)           -57.2676                                         !
 ! D9    D(29,1,2,21)           57.27                                           !
 ! D10   D(1,2,3,30)           -59.7119                                         !
 ! D11   D(1,2,3,31)           179.9988                                         !
 ! D12   D(1,2,3,32)            59.7089                                         !
 ! D13   D(4,2,3,30)           177.6226                                         !
 ! D14   D(4,2,3,31)            57.3333                                         !
 ! D15   D(4,2,3,32)           -62.9567                                         !
 ! D16   D(21,2,3,30)           62.9529                                         !
 ! D17   D(21,2,3,31)          -57.3364                                         !
 ! D18   D(21,2,3,32)         -177.6264                                         !
 ! D19   D(1,2,4,5)            -62.8413                                         !
 ! D20   D(1,2,4,10)           116.8961                                         !
 ! D21   D(3,2,4,5)             59.003                                          !
 ! D22   D(3,2,4,10)          -121.2596                                         !
 ! D23   D(21,2,4,5)           178.1732                                         !
 ! D24   D(21,2,4,10)           -2.0894                                         !
 ! D25   D(1,2,21,20)         -116.8984                                         !
 ! D26   D(1,2,21,22)           62.841                                          !
 ! D27   D(3,2,21,20)          121.2581                                         !
 ! D28   D(3,2,21,22)          -59.0026                                         !
 ! D29   D(4,2,21,20)            2.0872                                         !
 ! D30   D(4,2,21,22)         -178.1734                                         !
 ! D31   D(2,4,5,6)            179.9116                                         !
 ! D32   D(2,4,5,33)            -0.1361                                         !
 ! D33   D(10,4,5,6)             0.1723                                         !
 ! D34   D(10,4,5,33)         -179.8754                                         !
 ! D35   D(2,4,10,9)           179.9827                                         !
 ! D36   D(2,4,10,11)            0.8547                                         !
 ! D37   D(5,4,10,9)            -0.2835                                         !
 ! D38   D(5,4,10,11)         -179.4115                                         !
 ! D39   D(4,5,6,7)           -177.7954                                         !
 ! D40   D(4,5,6,8)              0.1224                                         !
 ! D41   D(33,5,6,7)             2.2512                                         !
 ! D42   D(33,5,6,8)          -179.831                                          !
 ! D43   D(5,6,7,34)           -18.7721                                         !
 ! D44   D(5,6,7,35)          -163.2531                                         !
 ! D45   D(8,6,7,34)           163.3977                                         !
 ! D46   D(8,6,7,35)            18.9167                                         !
 ! D47   D(5,6,8,9)             -0.2983                                         !
 ! D48   D(5,6,8,36)           179.8284                                         !
 ! D49   D(7,6,8,9)            177.6158                                         !
 ! D50   D(7,6,8,36)            -2.2575                                         !
 ! D51   D(6,8,9,10)             0.1846                                         !
 ! D52   D(6,8,9,37)          -179.8534                                         !
 ! D53   D(36,8,9,10)         -179.9429                                         !
 ! D54   D(36,8,9,37)            0.0191                                         !
 ! D55   D(8,9,10,4)             0.1108                                         !
 ! D56   D(8,9,10,11)          179.2736                                         !
 ! D57   D(37,9,10,4)         -179.8503                                         !
 ! D58   D(37,9,10,11)          -0.6875                                         !
 ! D59   D(4,10,11,12)        -179.5047                                         !
 ! D60   D(4,10,11,20)           0.9995                                         !
 ! D61   D(9,10,11,12)           1.3949                                         !
 ! D62   D(9,10,11,20)        -178.1008                                         !
 ! D63   D(10,11,12,13)        -89.7714                                         !
 ! D64   D(10,11,12,19)         90.2275                                         !
 ! D65   D(20,11,12,13)         89.7802                                         !
 ! D66   D(20,11,12,19)        -90.221                                          !
 ! D67   D(10,11,20,21)         -1.0021                                         !
 ! D68   D(10,11,20,25)        178.0985                                         !
 ! D69   D(12,11,20,21)        179.5022                                         !
 ! D70   D(12,11,20,25)         -1.3972                                         !
 ! D71   D(11,12,13,14)         -0.0013                                         !
 ! D72   D(11,12,13,15)        179.9984                                         !
 ! D73   D(19,12,13,14)        179.9998                                         !
 ! D74   D(19,12,13,15)         -0.0005                                         !
 ! D75   D(11,12,19,17)       -179.9979                                         !
 ! D76   D(11,12,19,45)          0.0016                                         !
 ! D77   D(13,12,19,17)          0.0009                                         !
 ! D78   D(13,12,19,45)       -179.9995                                         !
 ! D79   D(12,13,14,38)       -179.9901                                         !
 ! D80   D(12,13,14,39)         58.2228                                         !
 ! D81   D(12,13,14,40)        -58.2011                                         !
 ! D82   D(15,13,14,38)          0.0102                                         !
 ! D83   D(15,13,14,39)       -121.7769                                         !
 ! D84   D(15,13,14,40)        121.7992                                         !
 ! D85   D(12,13,15,16)         -0.0002                                         !
 ! D86   D(12,13,15,41)       -180.0                                            !
 ! D87   D(14,13,15,16)        179.9995                                         !
 ! D88   D(14,13,15,41)         -0.0003                                         !
 ! D89   D(13,15,16,17)          0.0003                                         !
 ! D90   D(13,15,16,42)       -179.9997                                         !
 ! D91   D(41,15,16,17)       -179.9999                                         !
 ! D92   D(41,15,16,42)          0.0002                                         !
 ! D93   D(15,16,17,18)       -179.9993                                         !
 ! D94   D(15,16,17,19)          0.0001                                         !
 ! D95   D(42,16,17,18)          0.0006                                         !
 ! D96   D(42,16,17,19)       -179.9999                                         !
 ! D97   D(16,17,18,43)        179.9997                                         !
 ! D98   D(16,17,18,44)          0.0007                                         !
 ! D99   D(19,17,18,43)          0.0003                                         !
 ! D100  D(19,17,18,44)       -179.9988                                         !
 ! D101  D(16,17,19,12)         -0.0008                                         !
 ! D102  D(16,17,19,45)        179.9997                                         !
 ! D103  D(18,17,19,12)        179.9987                                         !
 ! D104  D(18,17,19,45)         -0.0008                                         !
 ! D105  D(11,20,21,2)          -0.8501                                         !
 ! D106  D(11,20,21,22)        179.4141                                         !
 ! D107  D(25,20,21,2)        -179.9783                                         !
 ! D108  D(25,20,21,22)          0.2859                                         !
 ! D109  D(11,20,25,24)       -179.2756                                         !
 ! D110  D(11,20,25,48)          0.6855                                         !
 ! D111  D(21,20,25,24)         -0.1126                                         !
 ! D112  D(21,20,25,48)        179.8485                                         !
 ! D113  D(2,21,22,23)        -179.9144                                         !
 ! D114  D(2,21,22,46)           0.1334                                         !
 ! D115  D(20,21,22,23)         -0.1732                                         !
 ! D116  D(20,21,22,46)        179.8747                                         !
 ! D117  D(21,22,23,24)         -0.1237                                         !
 ! D118  D(21,22,23,26)        177.7946                                         !
 ! D119  D(46,22,23,24)        179.8295                                         !
 ! D120  D(46,22,23,26)         -2.2522                                         !
 ! D121  D(22,23,24,25)          0.3002                                         !
 ! D122  D(22,23,24,47)       -179.8268                                         !
 ! D123  D(26,23,24,25)       -177.6144                                         !
 ! D124  D(26,23,24,47)          2.2585                                         !
 ! D125  D(22,23,26,49)         18.77                                           !
 ! D126  D(22,23,26,50)        163.2538                                         !
 ! D127  D(24,23,26,49)       -163.3993                                         !
 ! D128  D(24,23,26,50)        -18.9155                                         !
 ! D129  D(23,24,25,20)         -0.185                                          !
 ! D130  D(23,24,25,48)        179.853                                          !
 ! D131  D(47,24,25,20)        179.9429                                         !
 ! D132  D(47,24,25,48)         -0.0191                                         !
 --------------------------------------------------------------------------------
                          Input orientation:                          
 ---------------------------------------------------------------------
 Center     Atomic      Atomic             Coordinates (Angstroms)
 Number     Number       Type             X           Y           Z
 ---------------------------------------------------------------------
      1          6           0        3.674973    0.028489   -1.826216
      2         14           0        2.723941    0.018528   -0.205786
      3          6           0        3.935048    0.016088    1.230200
      4          6           0        1.563965    1.488908   -0.103122
      5          6           0        2.103906    2.770763   -0.103957
      6          6           0        1.305190    3.932802   -0.031533
      7          7           0        1.862231    5.181952   -0.079180
      8          6           0       -0.090021    3.752735    0.046218
      9          6           0       -0.644455    2.485238    0.044535
     10          6           0        0.147692    1.304282   -0.030685
     11          6           0       -0.490460    0.007660   -0.012489
     12          6           0       -1.971903    0.002763    0.054023
     13          6           0       -2.626576   -0.004649    1.326172
     14          6           0       -1.836496   -0.007521    2.582633
     15          6           0       -4.054774   -0.009239    1.367657
     16          6           0       -4.801476   -0.006718    0.228157
     17          6           0       -4.141035    0.000744   -1.052520
     18          7           0       -4.853772    0.003251   -2.160745
     19          6           0       -2.711287    0.005373   -1.104344
     20          6           0        0.155769   -1.284750   -0.041815
     21          6           0        1.573163   -1.459895   -0.115852
     22          6           0        2.121095   -2.738300   -0.127745
     23          6           0        1.329656   -3.905883   -0.065320
     24          6           0       -0.066646   -3.735211    0.014039
     25          6           0       -0.628984   -2.471232    0.023278
     26          7           0        1.894486   -5.151069   -0.123758
     27          1           0        4.316722    0.921203   -1.894590
     28          1           0        4.322241   -0.859605   -1.902294
     29          1           0        2.988678    0.030084   -2.686718
     30          1           0        4.585996   -0.871591    1.188726
     31          1           0        3.403806    0.010292    2.194155
     32          1           0        4.580502    0.908094    1.196398
     33          1           0        3.189495    2.906361   -0.161680
     34          1           0        2.852126    5.263899    0.123227
     35          1           0        1.295256    5.962511    0.231834
     36          1           0       -0.738164    4.629901    0.106398
     37          1           0       -1.731049    2.409550    0.104366
     38          1           0       -2.483053   -0.013444    3.467572
     39          1           0       -1.175004    0.874922    2.617972
     40          1           0       -1.169267   -0.885903    2.610355
     41          1           0       -4.548004   -0.014884    2.340519
     42          1           0       -5.891722   -0.010209    0.257918
     43          1           0       -4.402231    0.008512   -3.072999
     44          1           0       -5.870777   -0.000002   -2.128867
     45          1           0       -2.220974    0.011009   -2.079011
     46          1           0        3.207505   -2.866622   -0.186655
     47          1           0       -0.709293   -4.616893    0.066698
     48          1           0       -1.716023   -2.402842    0.083800
     49          1           0        2.884897   -5.228577    0.077868
     50          1           0        1.332433   -5.937820    0.180518
 ---------------------------------------------------------------------
                    Distance matrix (angstroms):
                    1          2          3          4          5
     1  C    0.000000
     2  Si   1.878924   0.000000
     3  C    3.067487   1.878521   0.000000
     4  C    3.091639   1.875661   3.093377   0.000000
     5  C    3.599236   2.823050   3.566692   1.390931   0.000000
     6  C    4.907180   4.167104   4.883520   2.458598   1.411922
     7  N    5.735533   5.236365   5.718146   3.705146   2.423396
     8  C    5.617045   4.682541   5.618321   2.807648   2.408347
     9  C    5.309688   4.182513   5.336137   2.427261   2.767140
    10  C    4.158520   2.884595   4.194442   1.430092   2.445958
    11  C    4.543222   3.220226   4.596680   2.534358   3.791285
    12  C    5.951736   4.703052   6.022926   3.838709   4.929402
    13  C    7.046146   5.565561   6.562359   4.672711   5.667949
    14  C    7.058012   5.345423   5.927929   4.584290   5.519365
    15  C    8.363686   6.958985   7.991044   5.998155   6.915447
    16  C    8.721919   7.537961   8.793831   6.547174   7.450436
    17  C    7.854257   6.917020   8.392506   5.971852   6.897250
    18  N    8.535341   7.825844   9.420299   6.901329   7.765230
    19  C    6.426970   5.509018   7.044429   4.634771   5.642184
    20  C    4.158543   2.884602   4.194419   3.111263   4.499588
    21  C    3.091640   1.875664   3.093361   2.948845   4.263837
    22  C    3.599231   2.823050   3.566664   4.263835   5.509141
    23  C    4.907194   4.167105   4.883472   5.400010   6.721500
    24  C    5.617089   4.682548   5.618260   5.473942   6.859513
    25  C    5.309734   4.182520   5.336085   4.528544   5.912984
    26  N    5.735532   5.236360   5.718095   6.648231   7.924625
    27  H    1.101569   2.490749   3.275549   3.333064   3.394672
    28  H    1.101569   2.490746   3.275557   4.044826   4.618939
    29  H    1.100666   2.495043   4.029647   3.291343   3.868436
    30  H    3.275665   2.490828   1.101557   4.046418   4.593315
    31  H    4.029547   2.494394   1.100663   3.293752   3.819851
    32  H    3.275650   2.490836   1.101557   3.335505   3.360653
    33  H    3.359838   2.925451   3.293456   2.157533   1.095546
    34  H    5.646850   5.257242   5.471529   3.995140   2.612885
    35  H    6.716490   6.128914   6.582187   4.494166   3.309671
    36  H    6.662114   5.774806   6.662515   3.899940   3.402646
    37  H    6.214634   5.065582   6.253065   3.427499   3.857558
    38  H    8.120790   6.372391   6.796964   5.602256   6.445760
    39  H    6.632460   4.889662   5.364339   3.909384   4.664157
    40  H    6.632190   4.889348   5.363996   4.524737   5.608241
    41  H    9.218509   7.704932   8.555462   6.751958   7.614670
    42  H    9.791157   8.628180   9.874787   7.613473   8.473182
    43  H    8.172888   7.681364   9.382314   6.826950   7.666490
    44  H    9.550589   8.807257  10.365221   7.848305   8.681761
    45  H    5.901390   5.287836   6.989099   4.518195   5.497424
    46  H    3.359815   2.925456   3.293451   4.656055   5.744988
    47  H    6.662168   5.774813   6.662443   6.517465   7.907002
    48  H    6.214690   5.065587   6.253004   5.093033   6.433763
    49  H    5.646813   5.257231   5.471490   6.848520   8.039431
    50  H    6.716496   6.128916   6.582132   7.435748   8.747315
                    6          7          8          9         10
     6  C    0.000000
     7  N    1.368554   0.000000
     8  C    1.408930   2.422741   0.000000
     9  C    2.429474   3.683890   1.383456   0.000000
    10  C    2.872093   4.240085   2.461167   1.424013   0.000000
    11  C    4.316418   5.684444   3.766880   2.483014   1.445268
    12  C    5.117799   6.445334   4.195692   2.815118   2.488737
    13  C    5.727623   7.001802   4.710661   3.430879   3.354240
    14  C    5.677164   6.906262   4.860360   3.751899   3.533732
    15  C    6.799017   8.003297   5.622982   4.427566   4.619677
    16  C    7.271769   8.451139   6.030290   4.850194   5.126401
    17  C    6.794473   7.989462   5.629865   4.427450   4.597449
    18  N    7.609713   8.732500   6.451561   5.361145   5.589676
    19  C    5.719065   6.983194   4.715671   3.426580   3.318685
    20  C    5.342670   6.688172   5.044246   3.854948   2.589069
    21  C    5.400009   6.648236   5.473935   4.528535   3.111254
    22  C    6.721499   7.924629   6.859507   5.912977   4.499579
    23  C    7.838796   9.103437   7.789888   6.689963   5.342664
    24  C    7.789893   9.123872   7.488052   6.247302   5.044247
    25  C    6.689968   8.049091   6.247301   4.956539   3.854950
    26  N    9.103433  10.333168   9.123864   8.049083   6.688163
    27  H    4.648659   5.241585   5.586027   5.551549   4.582761
    28  H    5.964017   6.773167   6.673712   6.296522   5.060849
    29  H    5.011521   5.883015   5.550266   5.165964   4.092590
    30  H    5.944317   6.758095   6.674942   6.319422   5.091162
    31  H    4.974330   5.855815   5.552148   5.209093   4.150495
    32  H    4.624321   5.223213   5.588263   5.578024   4.616547
    33  H    2.149680   2.635669   3.393346   3.862518   3.440404
    34  H    2.046651   1.013694   3.308440   4.466904   4.797522
    35  H    2.046749   1.013639   2.614681   3.986100   4.804677
    36  H    2.163393   2.664818   1.092305   2.147600   3.444310
    37  H    3.399634   4.542198   2.121438   1.090868   2.183924
    38  H    6.493641   7.645462   5.622844   4.619636   4.571107
    39  H    4.745721   5.920299   4.009104   3.081749   2.991531
    40  H    6.026809   7.296742   5.408932   4.268894   3.675104
    41  H    7.447867   8.599602   6.271553   5.172991   5.423317
    42  H    8.211373   9.337877   6.918403   5.814343   6.187543
    43  H    7.564736   8.658575   6.507218   5.474859   5.624633
    44  H    8.447500   9.531699   7.227114   6.181791   6.505805
    45  H    5.657425   6.885531   4.801882   3.621694   3.388034
    46  H    7.062226   8.160935   7.398905   6.597989   5.175252
    47  H    8.784365  10.131701   8.392532   7.102461   5.983663
    48  H    7.020072   8.388060   6.366822   5.004310   4.150820
    49  H    9.297220  10.461817   9.461243   8.482947   7.083949
    50  H    9.872937  11.135414   9.795319   8.653004   7.341408
                   11         12         13         14         15
    11  C    0.000000
    12  C    1.482943   0.000000
    13  C    2.520944   1.430739   0.000000
    14  C    2.923474   2.532254   1.484227   0.000000
    15  C    3.822228   2.462546   1.428808   2.529215   0.000000
    16  C    4.317752   2.834942   2.436356   3.786114   1.362362
    17  C    3.795841   2.435072   2.819892   4.304103   2.421735
    18  N    4.863488   3.634607   4.137518   5.621717   3.617759
    19  C    2.474717   1.374231   2.432013   3.789357   2.813532
    20  C    1.445266   2.488747   3.354324   3.533859   4.619763
    21  C    2.534352   3.838713   4.672792   4.584429   5.998240
    22  C    3.791279   4.929411   5.668078   5.519585   6.915588
    23  C    4.316414   5.117816   5.727796   5.677446   6.799216
    24  C    3.766882   4.195717   4.710841   4.860629   5.623194
    25  C    2.483016   2.815142   3.431026   3.752100   4.427731
    26  N    5.684438   6.445351   7.001996   6.906581   8.003526
    27  H    5.242696   6.647362   7.709727   7.666168   9.032714
    28  H    5.242671   6.647338   7.709734   7.666202   9.032723
    29  H    4.388211   5.667430   6.901852   7.144912   8.127097
    30  H    5.290217   6.712531   7.265788   6.628574   8.685538
    31  H    4.476002   5.786058   6.092547   5.254712   7.504259
    32  H    5.290259   6.712574   7.265805   6.628564   8.685553
    33  H    4.686874   5.925996   6.671908   6.425149   7.957325
    34  H    6.230518   7.138319   7.695509   7.471260   8.778375
    35  H    6.221634   6.798864   7.223943   7.139707   8.097822
    36  H    4.630400   4.789077   5.151019   5.370638   5.840573
    37  H    2.705882   2.419333   2.850112   3.463403   3.584152
    38  H    4.010199   3.451645   2.146223   1.095988   2.622969
    39  H    2.853080   2.823038   2.132945   1.103415   3.261610
    40  H    2.852814   2.822904   2.132952   1.103412   3.261746
    41  H    4.690503   3.444513   2.172761   2.722306   1.090764
    42  H    5.408056   3.925140   3.435458   4.674309   2.146136
    43  H    4.966758   3.960404   4.744031   6.210429   4.454265
    44  H    5.781603   4.468360   4.739426   6.202718   3.940005
    45  H    2.695404   2.147542   3.429289   4.677508   3.904197
    46  H    4.686873   5.926007   6.672034   6.425368   7.957463
    47  H    4.630404   4.789108   5.151218   5.370924   5.840823
    48  H    2.705881   2.419358   2.850250   3.463559   3.584324
    49  H    6.230520   7.138346   7.695715   7.471601   8.778615
    50  H    6.221649   6.798908   7.224181   7.140078   8.098109
                   16         17         18         19         20
    16  C    0.000000
    17  C    1.440963   0.000000
    18  N    2.389496   1.317636   0.000000
    19  C    2.478830   1.430695   2.388772   0.000000
    20  C    5.126454   4.597449   5.589661   3.318643   0.000000
    21  C    6.547220   5.971840   6.901296   4.634721   1.430092
    22  C    7.450517   6.897234   7.765177   5.642110   2.445956
    23  C    7.271890   6.794465   7.609659   5.718978   2.872090
    24  C    6.030433   5.629880   6.451539   4.715599   2.461168
    25  C    4.850309   4.427472   5.361144   3.426527   1.424013
    26  N    8.451278   7.989449   8.732429   6.983093   4.240080
    27  H    9.407902   8.549268   9.220165   7.131349   5.060883
    28  H    9.407893   8.549231   9.220116   7.131299   4.582752
    29  H    8.317713   7.314661   7.860114   5.915582   4.092636
    30  H    9.476039   9.052359  10.054528   7.699193   4.616475
    31  H    8.437541   8.213746   9.335567   6.947984   4.150475
    32  H    9.476069   9.052410  10.054585   7.699253   5.091169
    33  H    8.514318   7.935545   8.781712   6.642557   5.175255
    34  H    9.293441   8.831052   9.605822   7.753102   7.083953
    35  H    8.532400   8.169792   8.890882   7.302415   7.341397
    36  H    6.166325   5.861033   6.594244   5.171592   5.983659
    37  H    3.909118   3.598440   4.546692   2.863899   4.150820
    38  H    3.983584   4.814597   6.107254   4.577649   4.571148
    39  H    4.431681   4.799379   6.093380   4.119699   3.675541
    40  H    4.431791   4.799396   6.093404   4.119611   2.991456
    41  H    2.127530   3.417394   4.511673   3.903975   5.423426
    42  H    1.090657   2.186841   2.632005   3.459938   6.187604
    43  H    3.325247   2.037307   1.017902   2.595170   5.624586
    44  H    2.588246   2.037286   1.017509   3.321454   6.505814
    45  H    3.461550   2.177251   2.634078   1.091060   3.387929
    46  H    8.514394   7.935525   8.781651   6.642485   3.440406
    47  H    6.166502   5.861064   6.594236   5.171524   3.444311
    48  H    3.909254   3.598490   4.546728   2.863867   2.183922
    49  H    9.293586   8.831042   9.605749   7.753008   4.797524
    50  H    8.532589   8.169809   8.890836   7.302334   4.804688
                   21         22         23         24         25
    21  C    0.000000
    22  C    1.390931   0.000000
    23  C    2.458598   1.411922   0.000000
    24  C    2.807651   2.408349   1.408931   0.000000
    25  C    2.427263   2.767140   2.429473   1.383456   0.000000
    26  N    3.705142   2.423391   1.368553   2.422743   3.683890
    27  H    4.044830   4.618926   5.964022   6.673752   6.296573
    28  H    3.333039   3.394637   4.648640   5.586034   5.551558
    29  H    3.291363   3.868461   5.011578   5.550363   5.166055
    30  H    3.335444   3.360570   4.624209   5.588138   5.577914
    31  H    3.293757   3.819859   4.974309   5.552093   5.209036
    32  H    4.046413   4.593280   5.944267   6.674896   6.319398
    33  H    4.656052   5.744982   7.062220   7.398905   6.597991
    34  H    6.848526   8.039439   9.297224   9.461244   8.482945
    35  H    7.435741   8.747309   9.872927   9.795306   8.652989
    36  H    6.517457   7.906995   8.784359   8.392530   7.102458
    37  H    5.093027   6.433759   7.020072   6.366827   5.004314
    38  H    5.602324   6.445876   6.493778   5.622940   4.619681
    39  H    4.525217   5.608796   6.027393   5.409459   4.269346
    40  H    3.909297   4.664231   4.745959   4.009387   3.081906
    41  H    6.752074   7.614867   7.448141   6.271834   5.173197
    42  H    7.613527   8.473279   8.211519   6.918571   5.814474
    43  H    6.826879   7.666374   7.564599   6.507116   5.474802
    44  H    7.848297   8.681750   8.447506   7.227155   6.181837
    45  H    4.518078   5.497245   5.657204   4.801681   3.621542
    46  H    2.157537   1.095547   2.149675   3.393345   3.862519
    47  H    3.899944   3.402648   2.163394   1.092305   2.147603
    48  H    3.427500   3.857559   3.399636   2.121442   1.090869
    49  H    3.995139   2.612882   2.046656   3.308448   4.466911
    50  H    4.494174   3.309674   2.046756   2.614694   3.986115
                   26         27         28         29         30
    26  N    0.000000
    27  H    6.773150   0.000000
    28  H    5.241551   1.780833   0.000000
    29  H    5.883058   1.784730   1.784729   0.000000
    30  H    5.223100   3.576793   3.102275   4.287599   0.000000
    31  H    5.855802   4.287307   4.287322   4.898534   1.784986
    32  H    6.758029   3.102250   3.576778   4.287586   1.779710
    33  H    8.160923   2.866089   4.300621   3.832637   4.248144
    34  H   10.461818   5.007557   6.615230   5.941990   6.464196
    35  H   11.135403   6.250258   7.762629   6.824904   7.645231
    36  H   10.131692   6.581053   7.731572   6.545926   7.732045
    37  H    8.388058   6.541142   7.166337   5.977276   7.200471
    38  H    7.645632   8.709953   8.709964   8.235108   7.476697
    39  H    7.297357   7.108052   7.325373   6.796302   6.187258
    40  H    5.920608   7.325042   7.107838   6.796066   5.928262
    41  H    8.599926   9.868929   9.868954   9.059619   9.246108
    42  H    9.338049  10.474404  10.474399   9.355960  10.554191
    43  H    8.658404   8.845440   8.845372   7.401028   9.986246
    44  H    9.531698  10.231747  10.231709   8.877051  11.005007
    45  H    6.885279   6.603328   6.603246   5.245011   7.602100
    46  H    2.635654   4.300584   2.866038   3.832637   2.787841
    47  H    2.664823   7.731622   6.581069   6.546043   6.582272
    48  H    4.542203   7.166402   6.541161   5.977383   6.578832
    49  H    1.013694   6.615172   5.007486   5.941988   4.807397
    50  H    1.013639   7.762619   6.250226   6.824959   6.104820
                   31         32         33         34         35
    31  H    0.000000
    32  H    1.784987   0.000000
    33  H    3.739398   2.787893   0.000000
    34  H    5.673930   4.807496   2.398536   0.000000
    35  H    6.612534   6.104946   3.617050   1.709883   0.000000
    36  H    6.546406   6.582413   4.297553   3.645877   2.434416
    37  H    6.040728   6.578950   4.952711   5.399366   4.668865
    38  H    6.023061   7.476715   7.339927   8.215785   7.775453
    39  H    4.678965   5.928560   5.558962   6.457914   6.138356
    40  H    4.678610   6.186885   6.408139   7.757415   7.657155
    41  H    7.953197   9.246108   8.640807   9.356487   8.620875
    42  H    9.495066  10.554217   9.547300  10.212210   9.344877
    43  H    9.416854   9.986316   8.631779   9.511081   8.878818
    44  H   10.232621  11.005056   9.716239  10.434061   9.616471
    45  H    7.063858   7.602180   6.429027   7.627519   7.288639
    46  H    3.739441   4.248110   5.773065   8.144182   9.043530
    47  H    6.546334   7.731987   8.476558  10.503187  10.768903
    48  H    6.040651   7.200444   7.232703   8.924598   8.892067
    49  H    5.673948   6.464125   8.144162  10.492625  11.304474
    50  H    6.612515   7.645162   9.043523  11.304479  11.900500
                   36         37         38         39         40
    36  H    0.000000
    37  H    2.432238   0.000000
    38  H    5.991893   4.212786   0.000000
    39  H    4.538579   2.997079   1.794995   0.000000
    40  H    6.072870   4.177989   1.795003   1.760850   0.000000
    41  H    6.409384   4.337452   2.352504   3.499409   3.499621
    42  H    6.936334   4.815601   4.681978   5.347965   5.348119
    43  H    6.700089   4.795400   6.816363   6.599456   6.599436
    44  H    7.264718   5.284943   6.541941   6.734111   6.734185
    45  H    5.320611   3.280269   5.552825   4.888971   4.888833
    46  H    8.476558   7.232704   7.340058   6.408702   5.559015
    47  H    9.246924   7.100444   5.991987   6.073377   4.538948
    48  H    7.100435   4.812460   4.212775   4.178332   2.997253
    49  H   10.503189   8.924609   8.215996   7.758068   6.458216
    50  H   10.768917   8.892093   7.775660   7.657798   6.138768
                   41         42         43         44         45
    41  H    0.000000
    42  H    2.478472   0.000000
    43  H    5.415531   3.648828   0.000000
    44  H    4.661047   2.386899   1.745877   0.000000
    45  H    4.994795   4.351560   2.397062   3.650160   0.000000
    46  H    8.641003   9.547391   8.631655   9.716219   6.428853
    47  H    6.409715   6.936547   6.699990   7.264786   5.320406
    48  H    4.337653   4.815752   4.795386   5.285027   3.280152
    49  H    9.356827  10.212386   9.510905  10.434055   7.627274
    50  H    8.621271   9.345104   8.878661   9.616505   7.288397
                   46         47         48         49         50
    46  H    0.000000
    47  H    4.297550   0.000000
    48  H    4.952713   2.432246   0.000000
    49  H    2.398516   3.645886   5.399378   0.000000
    50  H    3.617039   2.434429   4.668887   1.709886   0.000000
 Stoichiometry    C22H24N3Si(1+)
 Framework group  C1[X(C22H24N3Si)]
 Deg. of freedom   144
 Full point group                 C1      NOp   1
 Largest Abelian subgroup         C1      NOp   1
 Largest concise Abelian subgroup C1      NOp   1
                         Standard orientation:                         
 ---------------------------------------------------------------------
 Center     Atomic      Atomic             Coordinates (Angstroms)
 Number     Number       Type             X           Y           Z
 ---------------------------------------------------------------------
      1          6           0        3.680448    0.000200   -1.801803
      2         14           0        2.725281    0.000147   -0.183777
      3          6           0        3.932726    0.000204    1.255292
      4          6           0        1.569568    1.474500   -0.090412
      5          6           0        2.113443    2.754681   -0.095395
      6          6           0        1.318118    3.919460   -0.030019
      7          7           0        1.879112    5.166682   -0.081630
      8          6           0       -0.077832    3.744001    0.044948
      9          6           0       -0.636150    2.478211    0.047315
     10          6           0        0.152555    1.294523   -0.020793
     11          6           0       -0.489619   -0.000051    0.001365
     12          6           0       -1.971234   -0.000128    0.064118
     13          6           0       -2.629153   -0.000042    1.334613
     14          6           0       -1.842277    0.000095    2.593086
     15          6           0       -4.057459   -0.000083    1.372474
     16          6           0       -4.801256   -0.000198    0.231073
     17          6           0       -4.137547   -0.000288   -1.047936
     18          7           0       -4.847459   -0.000387   -2.157976
     19          6           0       -2.707664   -0.000258   -1.096132
     20          6           0        0.152710   -1.294546   -0.020741
     21          6           0        1.569743   -1.474346   -0.090406
     22          6           0        2.113776   -2.754460   -0.095389
     23          6           0        1.318599   -3.919336   -0.029951
     24          6           0       -0.077369   -3.744051    0.045109
     25          6           0       -0.635844   -2.478329    0.047464
     26          7           0        1.879749   -5.166485   -0.081579
     27          1           0        4.325106    0.890643   -1.872387
     28          1           0        4.325177   -0.890190   -1.872400
     29          1           0        2.996346    0.000179   -2.664051
     30          1           0        4.581048   -0.889634    1.219305
     31          1           0        3.399024    0.000196    2.217904
     32          1           0        4.581000    0.890076    1.219291
     33          1           0        3.199586    2.886706   -0.150932
     34          1           0        2.868737    5.246474    0.122947
     35          1           0        1.313749    5.950309    0.224569
     36          1           0       -0.723429    4.623397    0.099692
     37          1           0       -1.723119    2.406107    0.104700
     38          1           0       -2.491092   -0.000028    3.476390
     39          1           0       -1.178170    0.880654    2.626308
     40          1           0       -1.177821   -0.880196    2.626297
     41          1           0       -4.553171   -0.000017    2.344089
     42          1           0       -5.891579   -0.000224    0.258067
     43          1           0       -4.393590   -0.000447   -3.069090
     44          1           0       -5.864546   -0.000390   -2.128679
     45          1           0       -2.214865   -0.000332   -2.069560
     46          1           0        3.199932   -2.886359   -0.150974
     47          1           0       -0.722852   -4.623527    0.099930
     48          1           0       -1.722819   -2.406352    0.104918
     49          1           0        2.869403   -5.246151    0.122905
     50          1           0        1.314512   -5.950191    0.224651
 ---------------------------------------------------------------------
 Rotational constants (GHZ):           0.2081561           0.1827369           0.1124761
 Standard basis: def2SVP (5D, 7F)
 There are   514 symmetry adapted cartesian basis functions of A   symmetry.
 There are   488 symmetry adapted basis functions of A   symmetry.
   488 basis functions,   830 primitive gaussians,   514 cartesian basis functions
    95 alpha electrons       95 beta electrons
       nuclear repulsion energy      2411.5764202437 Hartrees.
 NAtoms=   50 NActive=   50 NUniq=   50 SFac= 1.00D+00 NAtFMM=   60 NAOKFM=F Big=F
 Integral buffers will be    131072 words long.
 Regular integral format.
 Two-electron integral symmetry is turned on.
 ------------------------------------------------------------------------------
 Polarizable Continuum Model (PCM)
 =================================
 Model                : PCM.
 Atomic radii         : SMD-Coulomb.
 Polarization charges : Total charges.
 Charge compensation  : None.
 Solution method      : On-the-fly selection.
 Cavity type          : VdW (van der Waals Surface) (Alpha=1.000).
 Cavity algorithm     : GePol (No added spheres)
                        Default sphere list used, NSphG=   50.
                        Lebedev-Laikov grids with approx.  5.0 points / Ang**2.
                        Smoothing algorithm: York/Karplus (Gamma=1.0000).
                        Polarization charges: spherical gaussians, with
                                              point-specific exponents (IZeta= 3).
                        Self-potential: point-specific (ISelfS= 7).
                        Self-field    : sphere-specific E.n sum rule (ISelfD= 2).
 Solvent              : Ethanol, Eps=  24.852000 Eps(inf)=   1.852593
 ------------------------------------------------------------------------------
 ------------------------------------------------------------------------------
 Atomic radii for non-electrostatic terms: SMD-CDS.
 ------------------------------------------------------------------------------
 Nuclear repulsion after PCM non-electrostatic terms =     2411.5769872861 Hartrees.
 One-electron integrals computed using PRISM.
   1 Symmetry operations used in ECPInt.
 ECPInt:  NShTT=   26565 NPrTT=   96561 LenC2=   23430 LenP2D=   57365.
 LDataN:  DoStor=T MaxTD1= 4 Len=   56
 NBasis=   488 RedAO= T EigKep=  2.24D-04  NBF=   488
 NBsUse=   488 1.00D-06 EigRej= -1.00D+00 NBFU=   488
 Initial guess from the checkpoint file:  "07C_Si_1_C_C2_CC_N__CC_C2C_C3_C__m062x_def2SVP_ethanol.chk"
 B after Tr=     0.000000    0.000000    0.000000
         Rot=    1.000000    0.000000   -0.000000   -0.000000 Ang=   0.00 deg.
 Requested convergence on RMS density matrix=1.00D-08 within 128 cycles.
 Requested convergence on MAX density matrix=1.00D-06.
 Requested convergence on             energy=1.00D-06.
 No special actions if energy rises.
 Inv3:  Mode=1 IEnd=    40804032.
 Iteration    1 A*A^-1 deviation from unit magnitude is 6.22D-15 for   1268.
 Iteration    1 A*A^-1 deviation from orthogonality  is 4.30D-15 for   1163    852.
 Iteration    1 A^-1*A deviation from unit magnitude is 5.77D-15 for   3678.
 Iteration    1 A^-1*A deviation from orthogonality  is 4.27D-14 for   3428   3374.
 Error on total polarization charges =  0.04894
 SCF Done:  E(RM062X) =  -1305.17993927     A.U. after    1 cycles
            NFock=  1  Conv=0.21D-08     -V/T= 2.0095
 SMD-CDS (non-electrostatic) energy       (kcal/mol) =       0.36
 (included in total energy above)
 DoSCS=F DFT=T ScalE2(SS,OS)=  1.000000  1.000000
 ExpMin= 7.80D-02 ExpMax= 6.90D+03 ExpMxC= 1.04D+03 IAcc=3 IRadAn=         5 AccDes= 0.00D+00
 HarFok:  IExCor=  205 AccDes= 0.00D+00 IRadAn=         5 IDoV=-2 UseB2=F ITyADJ=14
 ICtDFT= 12500011 ScaDFX=  1.000000  1.000000  1.000000  1.000000
 GSVD:  LWork=       -1140 too small for GESVD, short by        4950 words or        4950 for optimal perf.
 Range of M.O.s used for correlation:    31   488
 NBasis=   488 NAE=    95 NBE=    95 NFC=    30 NFV=     0
 NROrb=    458 NOA=    65 NOB=    65 NVA=   393 NVB=   393

 **** Warning!!: The largest alpha MO coefficient is  0.13025023D+02

 NEqPCM:  Using non-equilibrium solvation (IEInf=1, Eps=  24.8520, EpsInf=   1.8526)
 Inv3:  Mode=1 IEnd=    40804032.
 Iteration    1 A*A^-1 deviation from unit magnitude is 8.22D-15 for   1268.
 Iteration    1 A*A^-1 deviation from orthogonality  is 3.51D-15 for   3673    255.
 Iteration    1 A^-1*A deviation from unit magnitude is 7.55D-15 for   1268.
 Iteration    1 A^-1*A deviation from orthogonality  is 1.73D-15 for   3511    800.
 Orbital symmetries:
       Occupied  (A) (A) (A) (A) (A) (A) (A) (A) (A) (A) (A) (A)
                 (A) (A) (A) (A) (A) (A) (A) (A) (A) (A) (A) (A)
                 (A) (A) (A) (A) (A) (A) (A) (A) (A) (A) (A) (A)
                 (A) (A) (A) (A) (A) (A) (A) (A) (A) (A) (A) (A)
                 (A) (A) (A) (A) (A) (A) (A) (A) (A) (A) (A) (A)
                 (A) (A) (A) (A) (A) (A) (A) (A) (A) (A) (A) (A)
                 (A) (A) (A) (A) (A) (A) (A) (A) (A) (A) (A) (A)
                 (A) (A) (A) (A) (A) (A) (A) (A) (A) (A) (A)
       Virtual   (A) (A) (A) (A) (A) (A) (A) (A) (A) (A) (A) (A)
                 (A) (A) (A) (A) (A) (A) (A) (A) (A) (A) (A) (A)
                 (A) (A) (A) (A) (A) (A) (A) (A) (A) (A) (A) (A)
                 (A) (A) (A) (A) (A) (A) (A) (A) (A) (A) (A) (A)
                 (A) (A) (A) (A) (A) (A) (A) (A) (A) (A) (A) (A)
                 (A) (A) (A) (A) (A) (A) (A) (A) (A) (A) (A) (A)
                 (A) (A) (A) (A) (A) (A) (A) (A) (A) (A) (A) (A)
                 (A) (A) (A) (A) (A) (A) (A) (A) (A) (A) (A) (A)
                 (A) (A) (A) (A) (A) (A) (A) (A) (A) (A) (A) (A)
                 (A) (A) (A) (A) (A) (A) (A) (A) (A) (A) (A) (A)
                 (A) (A) (A) (A) (A) (A) (A) (A) (A) (A) (A) (A)
                 (A) (A) (A) (A) (A) (A) (A) (A) (A) (A) (A) (A)
                 (A) (A) (A) (A) (A) (A) (A) (A) (A) (A) (A) (A)
                 (A) (A) (A) (A) (A) (A) (A) (A) (A) (A) (A) (A)
                 (A) (A) (A) (A) (A) (A) (A) (A) (A) (A) (A) (A)
                 (A) (A) (A) (A) (A) (A) (A) (A) (A) (A) (A) (A)
                 (A) (A) (A) (A) (A) (A) (A) (A) (A) (A) (A) (A)
                 (A) (A) (A) (A) (A) (A) (A) (A) (A) (A) (A) (A)
                 (A) (A) (A) (A) (A) (A) (A) (A) (A) (A) (A) (A)
                 (A) (A) (A) (A) (A) (A) (A) (A) (A) (A) (A) (A)
                 (A) (A) (A) (A) (A) (A) (A) (A) (A) (A) (A) (A)
                 (A) (A) (A) (A) (A) (A) (A) (A) (A) (A) (A) (A)
                 (A) (A) (A) (A) (A) (A) (A) (A) (A) (A) (A) (A)
                 (A) (A) (A) (A) (A) (A) (A) (A) (A) (A) (A) (A)
                 (A) (A) (A) (A) (A) (A) (A) (A) (A) (A) (A) (A)
                 (A) (A) (A) (A) (A) (A) (A) (A) (A) (A) (A) (A)
                 (A) (A) (A) (A) (A) (A) (A) (A) (A) (A) (A) (A)
                 (A) (A) (A) (A) (A) (A) (A) (A) (A) (A) (A) (A)
                 (A) (A) (A) (A) (A) (A) (A) (A) (A) (A) (A) (A)
                 (A) (A) (A) (A) (A) (A) (A) (A) (A) (A) (A) (A)
                 (A) (A) (A) (A) (A) (A) (A) (A) (A) (A) (A) (A)
                 (A) (A) (A) (A) (A) (A) (A) (A) (A) (A) (A) (A)
                 (A) (A) (A) (A) (A) (A) (A) (A) (A)
    20 initial guesses have been made.
 Convergence on wavefunction:    0.001000000000000
 Iteration     1 Dimension    20 NMult     0 NNew     20
 CISAX will form    20 AO SS matrices at one time.
 New state      3 was old state      4
 New state      4 was old state      5
 New state      5 was old state      6
 Iteration     2 Dimension    30 NMult    20 NNew     10
 Iteration     3 Dimension    40 NMult    30 NNew     10
 Iteration     4 Dimension    50 NMult    40 NNew     10
 Iteration     5 Dimension    58 NMult    50 NNew      8
 Iteration     6 Dimension    64 NMult    58 NNew      6
 Iteration     7 Dimension    66 NMult    64 NNew      2
 Convergence on energies, max DE= 9.79D-06.
 ***********************************************************************
 Excited states from <AA,BB:AA,BB> singles matrix:
 ***********************************************************************
 
 Ground to excited state transition densities written to RWF  633
 Ground to excited state transition electric dipole moments (Au):
       state          X           Y           Z        Dip. S.      Osc.
         1         0.0000      0.2163      0.0000      0.0468      0.0020
         2        -0.0002      3.7909     -0.0000     14.3711      0.9137
         3         0.0003     -0.2318     -0.0000      0.0537      0.0047
         4        -0.3879     -0.0000      0.0369      0.1518      0.0141
         5        -0.0001      0.5538     -0.0000      0.3067      0.0295
 Ground to excited state transition velocity dipole moments (Au):
       state          X           Y           Z        Dip. S.      Osc.
         1        -0.0000     -0.0200     -0.0000      0.0004      0.0041
         2         0.0000     -0.3599      0.0000      0.1295      0.9053
         3        -0.0000      0.0259      0.0000      0.0007      0.0034
         4         0.0590      0.0000     -0.0057      0.0035      0.0169
         5         0.0000     -0.0829      0.0000      0.0069      0.0318
 Ground to excited state transition magnetic dipole moments (Au):
       state          X           Y           Z
         1         0.0727     -0.0001     -0.1700
         2        -0.0112      0.0000      0.6929
         3        -0.0656      0.0000     -0.3587
         4         0.0000      0.0215     -0.0000
         5        -0.1183     -0.0000     -1.2994
 Ground to excited state transition velocity quadrupole moments (Au):
       state          XX          YY          ZZ          XY          XZ          YZ
         1         0.0000     -0.0000      0.0000     -0.0505      0.0000     -0.0125
         2         0.0001     -0.0001      0.0000     -1.0163     -0.0000      0.0408
         3         0.0001     -0.0002      0.0000      0.1075      0.0000      0.0072
         4         0.6017     -1.0794      0.1689      0.0001     -0.0468      0.0000
         5        -0.0000      0.0001     -0.0000     -0.0933     -0.0000      0.0074
 <0|del|b> * <b|rxdel|0> + <0|del|b> * <b|delr+rdel|0>
 Rotatory Strengths (R) in cgs (10**-40 erg-esu-cm/Gauss)
       state          XX          YY          ZZ    R(velocity)    E-M Angle
         1         0.0122      0.0009      0.0037      0.0056       90.00
         2        -0.0618      0.0063     -0.0102     -0.0219       90.00
         3        -0.0027      0.0006      0.0073      0.0018       90.00
         4        -0.0000      0.0057     -0.0014      0.0014       90.00
         5        -0.0054     -0.0125      0.0031     -0.0049       90.00
 1/2[<0|r|b>*<b|rxdel|0> + (<0|rxdel|b>*<b|r|0>)*]
 Rotatory Strengths (R) in cgs (10**-40 erg-esu-cm/Gauss)
       state          XX          YY          ZZ     R(length)
         1        -0.0011      0.0100      0.0050      0.0047
         2        -0.0018     -0.0675      0.0180     -0.0171
         3         0.0123      0.0007     -0.0011      0.0040
         4         0.0021      0.0004      0.0013      0.0013
         5        -0.0077      0.0117     -0.0166     -0.0042
  1/2[<0|del|b>*<b|r|0> + (<0|r|b>*<b|del|0>)*] (Au)
       state          X           Y           Z        Dip. S.   Osc.(frdel)
         1        -0.0000     -0.0043     -0.0000      0.0043      0.0029
         2        -0.0000     -1.3642     -0.0000      1.3642      0.9095
         3        -0.0000     -0.0060     -0.0000      0.0060      0.0040
         4        -0.0229     -0.0000     -0.0002      0.0231      0.0154
         5        -0.0000     -0.0459     -0.0000      0.0459      0.0306

 Excitation energies and oscillator strengths:
 
 Excited State   1:      Singlet-A      1.7685 eV  701.08 nm  f=0.0020  <S**2>=0.000
      95 -> 96         0.70215
 This state for optimization and/or second-order correction.
 Total Energy, E(TD-HF/TD-DFT) =  -1305.11494901    
 Copying the excited state density for this state as the 1-particle RhoCI density.
 
 Excited State   2:      Singlet-A      2.5951 eV  477.76 nm  f=0.9137  <S**2>=0.000
      94 -> 96         0.69891
 
 Excited State   3:      Singlet-A      3.5511 eV  349.14 nm  f=0.0047  <S**2>=0.000
      89 -> 96         0.14690
      92 -> 96         0.67827
 
 Excited State   4:      Singlet-A      3.7843 eV  327.63 nm  f=0.0141  <S**2>=0.000
      91 -> 96         0.56252
      93 -> 96        -0.40773
 
 Excited State   5:      Singlet-A      3.9227 eV  316.07 nm  f=0.0295  <S**2>=0.000
      90 -> 96         0.68690
      94 -> 97        -0.11873
 SavETr:  write IOETrn=   770 NScale= 10 NData=  16 NLR=1 NState=    5 LETran=     100.

 **********************************************************************

            Population analysis using the SCF density.

 **********************************************************************

 Orbital symmetries:
       Occupied  (A) (A) (A) (A) (A) (A) (A) (A) (A) (A) (A) (A)
                 (A) (A) (A) (A) (A) (A) (A) (A) (A) (A) (A) (A)
                 (A) (A) (A) (A) (A) (A) (A) (A) (A) (A) (A) (A)
                 (A) (A) (A) (A) (A) (A) (A) (A) (A) (A) (A) (A)
                 (A) (A) (A) (A) (A) (A) (A) (A) (A) (A) (A) (A)
                 (A) (A) (A) (A) (A) (A) (A) (A) (A) (A) (A) (A)
                 (A) (A) (A) (A) (A) (A) (A) (A) (A) (A) (A) (A)
                 (A) (A) (A) (A) (A) (A) (A) (A) (A) (A) (A)
       Virtual   (A) (A) (A) (A) (A) (A) (A) (A) (A) (A) (A) (A)
                 (A) (A) (A) (A) (A) (A) (A) (A) (A) (A) (A) (A)
                 (A) (A) (A) (A) (A) (A) (A) (A) (A) (A) (A) (A)
                 (A) (A) (A) (A) (A) (A) (A) (A) (A) (A) (A) (A)
                 (A) (A) (A) (A) (A) (A) (A) (A) (A) (A) (A) (A)
                 (A) (A) (A) (A) (A) (A) (A) (A) (A) (A) (A) (A)
                 (A) (A) (A) (A) (A) (A) (A) (A) (A) (A) (A) (A)
                 (A) (A) (A) (A) (A) (A) (A) (A) (A) (A) (A) (A)
                 (A) (A) (A) (A) (A) (A) (A) (A) (A) (A) (A) (A)
                 (A) (A) (A) (A) (A) (A) (A) (A) (A) (A) (A) (A)
                 (A) (A) (A) (A) (A) (A) (A) (A) (A) (A) (A) (A)
                 (A) (A) (A) (A) (A) (A) (A) (A) (A) (A) (A) (A)
                 (A) (A) (A) (A) (A) (A) (A) (A) (A) (A) (A) (A)
                 (A) (A) (A) (A) (A) (A) (A) (A) (A) (A) (A) (A)
                 (A) (A) (A) (A) (A) (A) (A) (A) (A) (A) (A) (A)
                 (A) (A) (A) (A) (A) (A) (A) (A) (A) (A) (A) (A)
                 (A) (A) (A) (A) (A) (A) (A) (A) (A) (A) (A) (A)
                 (A) (A) (A) (A) (A) (A) (A) (A) (A) (A) (A) (A)
                 (A) (A) (A) (A) (A) (A) (A) (A) (A) (A) (A) (A)
                 (A) (A) (A) (A) (A) (A) (A) (A) (A) (A) (A) (A)
                 (A) (A) (A) (A) (A) (A) (A) (A) (A) (A) (A) (A)
                 (A) (A) (A) (A) (A) (A) (A) (A) (A) (A) (A) (A)
                 (A) (A) (A) (A) (A) (A) (A) (A) (A) (A) (A) (A)
                 (A) (A) (A) (A) (A) (A) (A) (A) (A) (A) (A) (A)
                 (A) (A) (A) (A) (A) (A) (A) (A) (A) (A) (A) (A)
                 (A) (A) (A) (A) (A) (A) (A) (A) (A) (A) (A) (A)
                 (A) (A) (A) (A) (A) (A) (A) (A) (A) (A) (A) (A)
                 (A) (A) (A) (A) (A) (A) (A) (A) (A) (A) (A) (A)
                 (A) (A) (A) (A) (A) (A) (A) (A) (A) (A) (A) (A)
                 (A) (A) (A) (A) (A) (A) (A) (A) (A) (A) (A) (A)
                 (A) (A) (A) (A) (A) (A) (A) (A) (A) (A) (A) (A)
                 (A) (A) (A) (A) (A) (A) (A) (A) (A) (A) (A) (A)
                 (A) (A) (A) (A) (A) (A) (A) (A) (A)
 The electronic state is 1-A.
 Alpha  occ. eigenvalues --  -67.01724 -14.79016 -14.79016 -14.76336 -10.63253
 Alpha  occ. eigenvalues --  -10.63207 -10.63206 -10.60304 -10.58584 -10.58584
 Alpha  occ. eigenvalues --  -10.58394 -10.58392 -10.57284 -10.57283 -10.57179
 Alpha  occ. eigenvalues --  -10.57075 -10.57073 -10.56883 -10.56883 -10.55546
 Alpha  occ. eigenvalues --  -10.55496 -10.55235 -10.54726 -10.54250 -10.53333
 Alpha  occ. eigenvalues --  -10.53324  -5.55355  -3.86663  -3.86586  -3.86553
 Alpha  occ. eigenvalues --   -1.04068  -1.04028  -1.02955  -0.98426  -0.94975
 Alpha  occ. eigenvalues --   -0.93912  -0.89382  -0.85878  -0.84933  -0.84029
 Alpha  occ. eigenvalues --   -0.83426  -0.83203  -0.78980  -0.76750  -0.75902
 Alpha  occ. eigenvalues --   -0.74255  -0.71981  -0.70474  -0.69774  -0.68987
 Alpha  occ. eigenvalues --   -0.66731  -0.64776  -0.62137  -0.61745  -0.60867
 Alpha  occ. eigenvalues --   -0.59599  -0.59290  -0.58542  -0.57287  -0.54252
 Alpha  occ. eigenvalues --   -0.53414  -0.52558  -0.51635  -0.51525  -0.51226
 Alpha  occ. eigenvalues --   -0.50894  -0.49527  -0.49089  -0.48585  -0.48419
 Alpha  occ. eigenvalues --   -0.48011  -0.47597  -0.47453  -0.46878  -0.45664
 Alpha  occ. eigenvalues --   -0.45604  -0.45551  -0.45343  -0.44303  -0.43833
 Alpha  occ. eigenvalues --   -0.43583  -0.43120  -0.41317  -0.39690  -0.39146
 Alpha  occ. eigenvalues --   -0.37506  -0.37132  -0.36510  -0.35941  -0.33045
 Alpha  occ. eigenvalues --   -0.32347  -0.31482  -0.31470  -0.26305  -0.23511
 Alpha virt. eigenvalues --   -0.10358  -0.00666   0.00583   0.01806   0.02515
 Alpha virt. eigenvalues --    0.04546   0.07544   0.08539   0.10529   0.10716
 Alpha virt. eigenvalues --    0.10925   0.11275   0.11342   0.12040   0.12974
 Alpha virt. eigenvalues --    0.13109   0.13348   0.13591   0.14374   0.14828
 Alpha virt. eigenvalues --    0.15602   0.16314   0.16991   0.17274   0.17412
 Alpha virt. eigenvalues --    0.17582   0.18076   0.18958   0.19219   0.19887
 Alpha virt. eigenvalues --    0.20165   0.21102   0.21576   0.21920   0.22414
 Alpha virt. eigenvalues --    0.22860   0.23827   0.24508   0.25912   0.26676
 Alpha virt. eigenvalues --    0.28036   0.28749   0.29062   0.29119   0.30315
 Alpha virt. eigenvalues --    0.31099   0.31483   0.32822   0.32879   0.33972
 Alpha virt. eigenvalues --    0.34217   0.34289   0.35909   0.36162   0.36463
 Alpha virt. eigenvalues --    0.37495   0.38330   0.38647   0.40569   0.40984
 Alpha virt. eigenvalues --    0.41745   0.42688   0.43125   0.43144   0.43657
 Alpha virt. eigenvalues --    0.44125   0.45090   0.45133   0.45600   0.46915
 Alpha virt. eigenvalues --    0.48294   0.48410   0.49757   0.50345   0.50868
 Alpha virt. eigenvalues --    0.50987   0.51095   0.51543   0.51933   0.52775
 Alpha virt. eigenvalues --    0.52807   0.53330   0.54117   0.54127   0.56404
 Alpha virt. eigenvalues --    0.56945   0.57649   0.58414   0.58580   0.59341
 Alpha virt. eigenvalues --    0.59637   0.60695   0.60903   0.61308   0.61665
 Alpha virt. eigenvalues --    0.62161   0.62818   0.62975   0.63899   0.64420
 Alpha virt. eigenvalues --    0.64892   0.65443   0.66433   0.66668   0.67840
 Alpha virt. eigenvalues --    0.67924   0.68432   0.69168   0.69712   0.69973
 Alpha virt. eigenvalues --    0.70552   0.70831   0.71406   0.71655   0.71991
 Alpha virt. eigenvalues --    0.72165   0.72299   0.73050   0.73261   0.73333
 Alpha virt. eigenvalues --    0.74179   0.74274   0.74907   0.75135   0.75902
 Alpha virt. eigenvalues --    0.76064   0.76303   0.77211   0.77341   0.78024
 Alpha virt. eigenvalues --    0.78025   0.78454   0.79084   0.79653   0.80098
 Alpha virt. eigenvalues --    0.80146   0.80590   0.80713   0.81188   0.81420
 Alpha virt. eigenvalues --    0.82896   0.83112   0.83138   0.84144   0.84675
 Alpha virt. eigenvalues --    0.84848   0.85877   0.86424   0.86475   0.87633
 Alpha virt. eigenvalues --    0.87793   0.88190   0.88401   0.89998   0.90324
 Alpha virt. eigenvalues --    0.90650   0.91926   0.92089   0.93537   0.93778
 Alpha virt. eigenvalues --    0.94891   0.94968   0.95995   0.96661   0.98264
 Alpha virt. eigenvalues --    1.00819   1.01029   1.01684   1.02583   1.05203
 Alpha virt. eigenvalues --    1.06867   1.07211   1.08785   1.09011   1.11091
 Alpha virt. eigenvalues --    1.12495   1.12537   1.16708   1.17694   1.18057
 Alpha virt. eigenvalues --    1.21014   1.21849   1.23824   1.26078   1.26164
 Alpha virt. eigenvalues --    1.27425   1.27672   1.27792   1.28369   1.28655
 Alpha virt. eigenvalues --    1.29471   1.30140   1.30337   1.30735   1.31447
 Alpha virt. eigenvalues --    1.31473   1.32444   1.33405   1.33618   1.34195
 Alpha virt. eigenvalues --    1.35965   1.36338   1.36780   1.37218   1.38137
 Alpha virt. eigenvalues --    1.39801   1.40446   1.41658   1.44137   1.49647
 Alpha virt. eigenvalues --    1.50209   1.50252   1.52751   1.54965   1.55983
 Alpha virt. eigenvalues --    1.56477   1.57871   1.58500   1.59636   1.59691
 Alpha virt. eigenvalues --    1.60272   1.61067   1.61953   1.63078   1.65395
 Alpha virt. eigenvalues --    1.66246   1.68384   1.69149   1.70516   1.72977
 Alpha virt. eigenvalues --    1.73513   1.74246   1.74413   1.76033   1.76823
 Alpha virt. eigenvalues --    1.77269   1.77427   1.77446   1.78164   1.78540
 Alpha virt. eigenvalues --    1.79550   1.80240   1.80318   1.80844   1.80903
 Alpha virt. eigenvalues --    1.81002   1.81712   1.81797   1.82489   1.82957
 Alpha virt. eigenvalues --    1.83007   1.83123   1.83529   1.83962   1.85607
 Alpha virt. eigenvalues --    1.86311   1.86717   1.86984   1.87279   1.87570
 Alpha virt. eigenvalues --    1.88435   1.88643   1.90522   1.90547   1.91367
 Alpha virt. eigenvalues --    1.92388   1.93248   1.93868   1.95307   1.95844
 Alpha virt. eigenvalues --    1.97084   1.97178   1.97350   1.97825   1.98556
 Alpha virt. eigenvalues --    1.98763   1.99627   1.99804   2.01322   2.02888
 Alpha virt. eigenvalues --    2.03148   2.04016   2.04127   2.04626   2.05720
 Alpha virt. eigenvalues --    2.07986   2.09381   2.09929   2.11829   2.12081
 Alpha virt. eigenvalues --    2.15161   2.15713   2.16042   2.16736   2.17117
 Alpha virt. eigenvalues --    2.17868   2.18695   2.18950   2.19535   2.19570
 Alpha virt. eigenvalues --    2.20685   2.21764   2.22653   2.24145   2.24552
 Alpha virt. eigenvalues --    2.24883   2.25756   2.26358   2.27328   2.28172
 Alpha virt. eigenvalues --    2.28629   2.29887   2.30884   2.31263   2.31404
 Alpha virt. eigenvalues --    2.32372   2.32497   2.34097   2.35348   2.35856
 Alpha virt. eigenvalues --    2.36877   2.37743   2.38293   2.39923   2.40992
 Alpha virt. eigenvalues --    2.41523   2.43985   2.44821   2.45701   2.47123
 Alpha virt. eigenvalues --    2.49128   2.49519   2.50856   2.51422   2.52740
 Alpha virt. eigenvalues --    2.53173   2.57161   2.57541   2.58611   2.60246
 Alpha virt. eigenvalues --    2.62331   2.62810   2.64059   2.64574   2.67078
 Alpha virt. eigenvalues --    2.67669   2.68117   2.69041   2.69345   2.70352
 Alpha virt. eigenvalues --    2.71585   2.73030   2.74370   2.77138   2.78941
 Alpha virt. eigenvalues --    2.79766   2.80208   2.82866   2.83723   2.84759
 Alpha virt. eigenvalues --    2.85599   2.86096   2.86569   2.87183   2.87775
 Alpha virt. eigenvalues --    2.90513   2.93650   2.94116   2.94374   2.94804
 Alpha virt. eigenvalues --    2.95232   2.95361   2.97011   2.97436   2.97842
 Alpha virt. eigenvalues --    3.00950   3.04120   3.06950   3.07676   3.10687
 Alpha virt. eigenvalues --    3.13554   3.13799   3.17757   3.18697   3.21754
 Alpha virt. eigenvalues --    3.23154   3.24785   3.49565   3.50137   3.53126
 Alpha virt. eigenvalues --    3.55768   3.58604   3.59702
          Condensed to atoms (all electrons):
               1          2          3          4          5          6
     1  C    4.819232   0.474484  -0.053182  -0.029878  -0.005979   0.000074
     2  Si   0.474484  12.132785   0.471475   0.314122  -0.035023   0.000892
     3  C   -0.053182   0.471475   4.823776  -0.029454  -0.006362   0.000107
[...]
    50  H    0.000371   0.365573   0.000000   0.000000  -0.000000  -0.000000
              31         32         33         34         35         36
     1  C    0.003112  -0.001771  -0.001689   0.000002  -0.000000   0.000000
     2  Si  -0.011584  -0.015399   0.002783  -0.000077   0.000027   0.000023
     3  C    0.370517   0.374952  -0.001664  -0.000000  -0.000000   0.000000
     4  C   -0.001974  -0.003259  -0.077852   0.000381  -0.000472  -0.002396
     5  C    0.000295   0.002384   0.460281  -0.025988   0.011665   0.016052
     6  C   -0.000011  -0.000099  -0.074896   0.000584  -0.000415  -0.081675
     7  N   -0.000000  -0.000003  -0.008804   0.367215   0.365573  -0.010413
     8  C   -0.000002   0.000007   0.015230   0.010788  -0.023815   0.465340
     9  C   -0.000003  -0.000006  -0.002247  -0.000444   0.000371  -0.059826
    10  C    0.000371  -0.000218   0.015499   0.000004  -0.000024   0.016218
    11  C   -0.000080  -0.000010  -0.000300  -0.000000  -0.000001  -0.000298
    12  C   -0.000005   0.000000   0.000007   0.000000  -0.000000   0.000047
    13  C   -0.000000  -0.000000   0.000000  -0.000000  -0.000000   0.000019
    14  C    0.000005   0.000000   0.000000  -0.000000  -0.000000   0.000003
    15  C    0.000000  -0.000000   0.000000  -0.000000   0.000000  -0.000001
    16  C   -0.000000   0.000000  -0.000000   0.000000  -0.000000  -0.000001
    17  C   -0.000000   0.000000   0.000000   0.000000   0.000000  -0.000002
    18  N   -0.000000   0.000000  -0.000000  -0.000000   0.000000   0.000000
    19  C    0.000000  -0.000000   0.000000  -0.000000  -0.000000   0.000016
    20  C    0.000371  -0.000048   0.000054  -0.000000   0.000000   0.000004
    21  C   -0.001974   0.003124   0.000267   0.000000  -0.000000   0.000000
    22  C    0.000295  -0.000015  -0.000015  -0.000000   0.000000  -0.000000
    23  C   -0.000011   0.000012   0.000000   0.000000  -0.000000   0.000000
    24  C   -0.000002  -0.000000  -0.000000   0.000000   0.000000  -0.000000
    25  C   -0.000003   0.000003   0.000001  -0.000000  -0.000000  -0.000000
    26  N   -0.000000  -0.000000  -0.000000  -0.000000   0.000000   0.000000
    27  H   -0.000094   0.000897   0.000654   0.000001   0.000000  -0.000000
    28  H   -0.000094  -0.000115  -0.000114  -0.000000   0.000000   0.000000
    29  H   -0.000085  -0.000091  -0.000030   0.000000  -0.000000  -0.000000
    30  H   -0.013282  -0.011766  -0.000126  -0.000000   0.000000   0.000000
    31  H    0.575616  -0.013282  -0.000048   0.000000  -0.000000  -0.000000
    32  H   -0.013282   0.574669   0.000911  -0.000003  -0.000000  -0.000000
    33  H   -0.000048   0.000911   0.616381   0.005584  -0.000420  -0.000198
    34  H    0.000000  -0.000003   0.005584   0.482376  -0.024753  -0.000263
    35  H   -0.000000  -0.000000  -0.000420  -0.024753   0.483136   0.004413
    36  H   -0.000000  -0.000000  -0.000198  -0.000263   0.004413   0.621463
    37  H    0.000000   0.000000   0.000017   0.000010  -0.000020  -0.013182
    38  H   -0.000000   0.000000  -0.000000   0.000000   0.000000  -0.000000
    39  H    0.000008  -0.000000  -0.000002   0.000000  -0.000000  -0.000007
    40  H    0.000008  -0.000000   0.000000  -0.000000  -0.000000   0.000000
    41  H   -0.000000  -0.000000  -0.000000  -0.000000  -0.000000   0.000000
    42  H    0.000000   0.000000   0.000000   0.000000  -0.000000   0.000000
    43  H    0.000000  -0.000000  -0.000000  -0.000000   0.000000  -0.000000
    44  H   -0.000000   0.000000   0.000000   0.000000  -0.000000   0.000000
    45  H   -0.000000   0.000000  -0.000000  -0.000000  -0.000000   0.000001
    46  H   -0.000048  -0.000126  -0.000002  -0.000000   0.000000   0.000000
    47  H   -0.000000   0.000000   0.000000   0.000000  -0.000000  -0.000000
    48  H    0.000000  -0.000000  -0.000000  -0.000000   0.000000  -0.000000
    49  H    0.000000  -0.000000  -0.000000  -0.000000  -0.000000   0.000000
    50  H   -0.000000   0.000000   0.000000  -0.000000  -0.000000  -0.000000
              37         38         39         40         41         42
     1  C    0.000001   0.000000  -0.000000  -0.000000  -0.000000   0.000000
     2  Si  -0.000249  -0.000010   0.000105   0.000105   0.000000  -0.000000
     3  C    0.000001   0.000000  -0.000000  -0.000000   0.000000  -0.000000
     4  C    0.015165   0.000017  -0.000657  -0.000017  -0.000000   0.000000
     5  C   -0.002674  -0.000001  -0.000022   0.000004   0.000000   0.000000
     6  C    0.016250   0.000001   0.000023  -0.000001   0.000000  -0.000000
     7  N   -0.000066   0.000000  -0.000000  -0.000000  -0.000000   0.000000
     8  C   -0.070042  -0.000009   0.000207   0.000021  -0.000000  -0.000000
     9  C    0.458546  -0.000026   0.004162   0.000056  -0.000006  -0.000000
    10  C   -0.054588   0.000132   0.000093  -0.002332  -0.000009   0.000000
    11  C   -0.035891  -0.000723   0.015020   0.015033  -0.000100   0.000028
    12  C    0.011393   0.012623  -0.020724  -0.020734   0.017246  -0.002263
    13  C   -0.002854  -0.015378  -0.006641  -0.006635  -0.071091   0.015770
    14  C   -0.000517   0.390516   0.371208   0.371206  -0.017658  -0.000297
    15  C    0.000460  -0.014744   0.003938   0.003943   0.463722  -0.066508
    16  C    0.000983   0.000648  -0.000477  -0.000477  -0.075972   0.460685
    17  C    0.000733  -0.000031   0.000056   0.000056   0.015270  -0.075207
    18  N   -0.000071  -0.000000  -0.000001  -0.000001  -0.000118  -0.011092
    19  C    0.000128  -0.000349   0.000021   0.000021  -0.002312   0.014622
    20  C    0.000261   0.000132  -0.002330   0.000090  -0.000009   0.000000
    21  C   -0.000040   0.000017  -0.000017  -0.000657  -0.000000   0.000000
    22  C   -0.000001  -0.000001   0.000004  -0.000022   0.000000   0.000000
    23  C   -0.000000   0.000001  -0.000001   0.000023   0.000000  -0.000000
    24  C    0.000000  -0.000009   0.000021   0.000207  -0.000000  -0.000000
    25  C    0.000002  -0.000026   0.000057   0.004161  -0.000006  -0.000000
    26  N   -0.000000   0.000000  -0.000000  -0.000000  -0.000000   0.000000
    27  H    0.000000   0.000000   0.000000  -0.000000  -0.000000  -0.000000
    28  H   -0.000000   0.000000  -0.000000   0.000000  -0.000000  -0.000000
    29  H    0.000000   0.000000  -0.000000  -0.000000   0.000000  -0.000000
    30  H   -0.000000   0.000000  -0.000000  -0.000000  -0.000000   0.000000
    31  H    0.000000  -0.000000   0.000008   0.000008  -0.000000   0.000000
    32  H    0.000000   0.000000  -0.000000  -0.000000  -0.000000   0.000000
    33  H    0.000017  -0.000000  -0.000002   0.000000  -0.000000   0.000000
    34  H    0.000010   0.000000   0.000000  -0.000000  -0.000000   0.000000
    35  H   -0.000020   0.000000  -0.000000  -0.000000  -0.000000  -0.000000
    36  H   -0.013182  -0.000000  -0.000007   0.000000   0.000000   0.000000
    37  H    0.611437   0.000020  -0.000160   0.000039  -0.000008  -0.000009
    38  H    0.000020   0.605139  -0.019227  -0.019228   0.006336  -0.000009
    39  H   -0.000160  -0.019227   0.634230  -0.024697   0.000363   0.000009
    40  H    0.000039  -0.019228  -0.024697   0.634230   0.000363   0.000009
    41  H   -0.000008   0.006336   0.000363   0.000363   0.645661  -0.012239
    42  H   -0.000009  -0.000009   0.000009   0.000009  -0.012239   0.646242
    43  H    0.000003   0.000000   0.000000   0.000000   0.000012  -0.000301
    44  H   -0.000002  -0.000000   0.000000   0.000000  -0.000023   0.005067
    45  H   -0.000163   0.000008  -0.000009  -0.000009   0.000011  -0.000144
    46  H   -0.000000  -0.000000   0.000000  -0.000002  -0.000000   0.000000
    47  H   -0.000000  -0.000000   0.000000  -0.000007   0.000000   0.000000
    48  H    0.000007   0.000020   0.000039  -0.000160  -0.000008  -0.000009
    49  H   -0.000000   0.000000  -0.000000   0.000000  -0.000000   0.000000
    50  H    0.000000   0.000000  -0.000000  -0.000000  -0.000000  -0.000000
              43         44         45         46         47         48
     1  C   -0.000000  -0.000000  -0.000002  -0.001689   0.000000   0.000001
     2  Si   0.000000  -0.000000   0.000069   0.002784   0.000023  -0.000249
     3  C   -0.000000   0.000000   0.000000  -0.001664   0.000000   0.000001
     4  C   -0.000000   0.000000  -0.000307   0.000267   0.000000  -0.000040
     5  C    0.000000  -0.000000   0.000005  -0.000015  -0.000000  -0.000001
     6  C    0.000000  -0.000000  -0.000005   0.000000   0.000000  -0.000000
     7  N   -0.000000   0.000000  -0.000000  -0.000000   0.000000  -0.000000
     8  C   -0.000000   0.000000   0.000016  -0.000000  -0.000000   0.000000
     9  C    0.000001   0.000000   0.000853   0.000001  -0.000000   0.000002
    10  C   -0.000003  -0.000000  -0.000228   0.000054   0.000004   0.000261
    11  C   -0.000008   0.000014  -0.006933  -0.000300  -0.000298  -0.035891
    12  C    0.000876  -0.000586  -0.077397   0.000007   0.000047   0.011396
    13  C   -0.000055  -0.000022   0.015560   0.000000   0.000018  -0.002853
    14  C   -0.000001  -0.000001  -0.000196   0.000000   0.000003  -0.000516
    15  C   -0.000483   0.000657  -0.002817   0.000000  -0.000001   0.000460
    16  C    0.012139  -0.027835   0.014608  -0.000000  -0.000001   0.000983
    17  C   -0.000200  -0.000217  -0.068577   0.000000  -0.000002   0.000733
    18  N    0.370806   0.367892  -0.010699  -0.000000   0.000000  -0.000071
    19  C   -0.029999   0.013435   0.468117   0.000000   0.000016   0.000128
    20  C   -0.000003  -0.000000  -0.000227   0.015499   0.016218  -0.054587
    21  C   -0.000000   0.000000  -0.000307  -0.077852  -0.002396   0.015165
    22  C    0.000000  -0.000000   0.000005   0.460280   0.016052  -0.002674
    23  C    0.000000  -0.000000  -0.000005  -0.074895  -0.081674   0.016250
    24  C   -0.000000   0.000000   0.000016   0.015230   0.465339  -0.070041
    25  C    0.000001   0.000000   0.000853  -0.002247  -0.059826   0.458546
    26  N   -0.000000   0.000000  -0.000000  -0.008804  -0.010413  -0.000066
    27  H    0.000000  -0.000000  -0.000000  -0.000114   0.000000  -0.000000
    28  H    0.000000  -0.000000  -0.000000   0.000654  -0.000000   0.000000
    29  H   -0.000000   0.000000   0.000003  -0.000030  -0.000000   0.000000
    30  H   -0.000000   0.000000   0.000000   0.000911  -0.000000   0.000000
    31  H    0.000000  -0.000000  -0.000000  -0.000048  -0.000000   0.000000
    32  H   -0.000000   0.000000   0.000000  -0.000126   0.000000  -0.000000
    33  H   -0.000000   0.000000  -0.000000  -0.000002   0.000000  -0.000000
    34  H   -0.000000   0.000000  -0.000000  -0.000000   0.000000  -0.000000
    35  H    0.000000  -0.000000  -0.000000   0.000000  -0.000000   0.000000
    36  H   -0.000000   0.000000   0.000001   0.000000  -0.000000  -0.000000
    37  H    0.000003  -0.000002  -0.000163  -0.000000  -0.000000   0.000007
    38  H    0.000000  -0.000000   0.000008  -0.000000  -0.000000   0.000020
    39  H    0.000000   0.000000  -0.000009   0.000000   0.000000   0.000039
    40  H    0.000000   0.000000  -0.000009  -0.000002  -0.000007  -0.000160
    41  H    0.000012  -0.000023   0.000011  -0.000000   0.000000  -0.000008
    42  H   -0.000301   0.005067  -0.000144   0.000000   0.000000  -0.000009
    43  H    0.503563  -0.030503   0.004890  -0.000000  -0.000000   0.000003
    44  H   -0.030503   0.502845  -0.000316   0.000000   0.000000  -0.000002
    45  H    0.004890  -0.000316   0.642357  -0.000000   0.000001  -0.000163
    46  H   -0.000000   0.000000  -0.000000   0.616379  -0.000198   0.000017
    47  H   -0.000000   0.000000   0.000001  -0.000198   0.621461  -0.013182
    48  H    0.000003  -0.000002  -0.000163   0.000017  -0.013182   0.611434
    49  H   -0.000000   0.000000  -0.000000   0.005584  -0.000263   0.000010
    50  H    0.000000  -0.000000  -0.000000  -0.000420   0.004413  -0.000020
              49         50
     1  C    0.000002  -0.000000
     2  Si  -0.000077   0.000027
     3  C   -0.000000  -0.000000
     4  C    0.000000  -0.000000
     5  C   -0.000000   0.000000
     6  C    0.000000  -0.000000
     7  N   -0.000000   0.000000
     8  C    0.000000   0.000000
     9  C   -0.000000  -0.000000
    10  C   -0.000000   0.000000
    11  C   -0.000000  -0.000001
    12  C    0.000000  -0.000000
    13  C   -0.000000  -0.000000
    14  C   -0.000000  -0.000000
    15  C   -0.000000   0.000000
    16  C    0.000000  -0.000000
    17  C    0.000000   0.000000
    18  N   -0.000000   0.000000
    19  C   -0.000000  -0.000000
    20  C    0.000004  -0.000024
    21  C    0.000381  -0.000472
    22  C   -0.025989   0.011665
    23  C    0.000584  -0.000415
    24  C    0.010788  -0.023815
    25  C   -0.000444   0.000371
    26  N    0.367215   0.365573
    27  H   -0.000000   0.000000
    28  H    0.000001   0.000000
    29  H    0.000000  -0.000000
    30  H   -0.000003  -0.000000
    31  H    0.000000  -0.000000
    32  H   -0.000000   0.000000
    33  H   -0.000000   0.000000
    34  H   -0.000000  -0.000000
    35  H   -0.000000  -0.000000
    36  H    0.000000  -0.000000
    37  H   -0.000000   0.000000
    38  H    0.000000   0.000000
    39  H   -0.000000  -0.000000
    40  H    0.000000  -0.000000
    41  H   -0.000000  -0.000000
    42  H    0.000000  -0.000000
    43  H   -0.000000   0.000000
    44  H    0.000000  -0.000000
    45  H   -0.000000  -0.000000
    46  H    0.005584  -0.000420
    47  H   -0.000263   0.004413
    48  H    0.000010  -0.000020
    49  H    0.482376  -0.024754
    50  H   -0.024754   0.483135
 Mulliken charges:
               1
     1  C   -0.284236
     2  Si   0.503846
     3  C   -0.288013
     4  C   -0.170327
     5  C   -0.082120
     6  C    0.083388
     7  N   -0.105514
     8  C   -0.046533
     9  C   -0.010414
    10  C    0.022513
    11  C    0.031976
    12  C   -0.128674
    13  C   -0.159512
    14  C    0.077472
    15  C   -0.063554
    16  C   -0.059678
    17  C    0.002027
    18  N   -0.111259
    19  C   -0.063310
    20  C    0.022516
    21  C   -0.170330
    22  C   -0.082119
    23  C    0.083387
    24  C   -0.046530
    25  C   -0.010416
    26  N   -0.105511
    27  H    0.088894
    28  H    0.088894
    29  H    0.091879
    30  H    0.089251
    31  H    0.091987
    32  H    0.089252
    33  H    0.050736
    34  H    0.184584
    35  H    0.184735
    36  H    0.044663
    37  H    0.065077
    38  H    0.054159
    39  H    0.045405
    40  H    0.045401
    41  H    0.030577
    42  H    0.025646
    43  H    0.169262
    44  H    0.169598
    45  H    0.021127
    46  H    0.050737
    47  H    0.044664
    48  H    0.065077
    49  H    0.184584
    50  H    0.184736
 Sum of Mulliken charges =   1.00000
 Mulliken charges with hydrogens summed into heavy atoms:
               1
     1  C   -0.014569
     2  Si   0.503846
     3  C   -0.017523
     4  C   -0.170327
     5  C   -0.031385
     6  C    0.083388
     7  N    0.263805
     8  C   -0.001870
     9  C    0.054663
    10  C    0.022513
    11  C    0.031976
    12  C   -0.128674
    13  C   -0.159512
    14  C    0.222437
    15  C   -0.032977
    16  C   -0.034032
    17  C    0.002027
    18  N    0.227602
    19  C   -0.042184
    20  C    0.022516
    21  C   -0.170330
    22  C   -0.031382
    23  C    0.083387
    24  C   -0.001866
    25  C    0.054661
    26  N    0.263809
 Electronic spatial extent (au):  <R**2>=           9838.5016
 Charge=              1.0000 electrons
 Dipole moment (field-independent basis, Debye):
    X=              3.7931    Y=             -0.0001    Z=             -0.8853  Tot=              3.8950
 Quadrupole moment (field-independent basis, Debye-Ang):
   XX=            -95.0512   YY=            -59.4529   ZZ=           -150.9677
   XY=             -0.0033   XZ=             14.4190   YZ=              0.0016
 Traceless Quadrupole moment (field-independent basis, Debye-Ang):
   XX=              6.7727   YY=             42.3711   ZZ=            -49.1438
   XY=             -0.0033   XZ=             14.4190   YZ=              0.0016
 Octapole moment (field-independent basis, Debye-Ang**2):
  XXX=            -78.9431  YYY=              0.0228  ZZZ=            -31.7003  XYY=            188.3266
  XXY=             -0.0295  XXZ=            -65.5341  XZZ=            -61.1143  YZZ=             -0.0058
  YYZ=             58.0662  XYZ=             -0.0093
 Hexadecapole moment (field-independent basis, Debye-Ang**3):
 XXXX=          -4961.7902 YYYY=          -2075.8478 ZZZZ=          -1038.7414 XXXY=             -0.0148
 XXXZ=            412.4626 YYYX=             -0.1568 YYYZ=              0.0027 ZZZX=            153.7754
 ZZZY=              0.0233 XXYY=          -1524.2242 XXZZ=          -1053.3920 YYZZ=          -1204.3574
 XXYZ=              0.0336 YYXZ=            104.3890 ZZXY=              0.0241
 N-N= 2.411576987286D+03 E-N=-7.843168424784D+03  KE= 1.292944444902D+03
 1\1\GINC-X1002C2S1B0N1\SP\RM062X TD-FC\def2SVP\C22H24N3Si1(1+)\XIAOGAN
 4\26-Dec-2025\0\\# m062x/def2SVP TD=(NStates=5, Root=1) SCRF=(SMD, sol
 vent=Ethanol) geom=check guess=read\\Step7 De-excitation m062x/def2SVP
 \\1,1\C,0,3.6749728508,0.0284892614,-1.8262163283\Si,0,2.7239412141,0.
 0185279779,-0.2057863726\C,0,3.9350479576,0.0160883253,1.230200075\C,0
 ,1.563964968,1.4889083665,-0.103122013\C,0,2.1039057975,2.7707634519,-
 0.1039568846\C,0,1.3051900912,3.9328017167,-0.0315330836\N,0,1.8622314
 308,5.1819516174,-0.0791802096\C,0,-0.090021126,3.7527352808,0.0462176
 477\C,0,-0.6444554558,2.4852381344,0.0445354142\C,0,0.1476917163,1.304
 2823797,-0.0306852519\C,0,-0.4904597895,0.0076598058,-0.0124892346\C,0
 ,-1.9719026599,0.0027625012,0.0540227275\C,0,-2.6265762353,-0.00464897
 91,1.3261717102\C,0,-1.8364957063,-0.0075211291,2.5826326985\C,0,-4.05
 47740045,-0.0092393448,1.3676572134\C,0,-4.8014759984,-0.0067180311,0.
 2281574728\C,0,-4.1410347725,0.000744009,-1.0525202659\N,0,-4.85377247
 77,0.0032508071,-2.1607450023\C,0,-2.71128667,0.0053729854,-1.10434441
 85\C,0,0.1557687963,-1.2847500608,-0.0418152582\C,0,1.573163005,-1.459
 8952828,-0.1158523629\C,0,2.1210952274,-2.7382997186,-0.1277447656\C,0
 ,1.3296555224,-3.9058829446,-0.0653197157\C,0,-0.066646223,-3.73521073
 07,0.0140386395\C,0,-0.628983542,-2.4712316045,0.0232777871\N,0,1.8944
 857692,-5.1510694079,-0.1237579794\H,0,4.3167219883,0.92120298,-1.8945
 895815\H,0,4.3222411084,-0.8596045599,-1.9022937242\H,0,2.9886775481,0
 .0300841123,-2.6867175203\H,0,4.5859957292,-0.8715909209,1.1887255067\
 H,0,3.4038063624,0.0102916738,2.1941546911\H,0,4.5805020467,0.90809371
 95,1.1963976652\H,0,3.1894947877,2.9063605854,-0.1616796431\H,0,2.8521
 262286,5.2638989067,0.123226657\H,0,1.2952561782,5.9625114805,0.231834
 1125\H,0,-0.738163997,4.6299006511,0.1063978203\H,0,-1.7310489121,2.40
 95504999,0.1043664996\H,0,-2.4830525748,-0.0134441789,3.4675721513\H,0
 ,-1.175003969,0.8749215208,2.617971637\H,0,-1.169267262,-0.8859031218,
 2.6103554169\H,0,-4.5480037962,-0.0148838825,2.3405186361\H,0,-5.89172
 17675,-0.0102085436,0.2579181259\H,0,-4.4022314477,0.0085119469,-3.072
 9994341\H,0,-5.8707772805,-0.0000021618,-2.1288671375\H,0,-2.220974096
 ,0.0110085655,-2.0790105152\H,0,3.2075050344,-2.8666222026,-0.18665486
 54\H,0,-0.7092925431,-4.6168927993,0.0666983584\H,0,-1.716023151,-2.40
 28417057,0.0837998401\H,0,2.8848973315,-5.2285769931,0.0778680461\H,0,
 1.3324327677,-5.9378199586,0.1805180178\\Version=ES64L-G16RevA.03\Stat
 e=1-A\HF=-1305.1799393\RMSD=2.052e-09\PG=C01 [X(C22H24N3Si1)]\\@


 READER, WHETHER YOU BE DILETTANTE OR PROFESSOR ... SHOW YOURSELF TO BE
 MORE HUMAN THAN CRITICAL, AND THEN YOUR PLEASURE WILL INCREASE.
                                           -- DOMENICO SCARLATTI (1738)
 Job cpu time:       0 days  3 hours 35 minutes 34.5 seconds.
 Elapsed time:       0 days  0 hours  3 minutes 28.8 seconds.
 File lengths (MBytes):  RWF=   1829 Int=      0 D2E=      0 Chk=     65 Scr=      1
 Normal termination of Gaussian 16 at Fri Dec 26 13:39:57 2025.
