 Entering Gaussian System, Link 0=g16
 Initial command:
 /home/users/sutd/1008721/g16/l1.exe "/home/users/sutd/1008721/scratch/g16/scratch/Gau-2606501.inp" -scrdir="/home/users/sutd/1008721/scratch/g16/scratch/"
 Entering Link 1 = /home/users/sutd/1008721/g16/l1.exe PID=   2606505.
  
 Copyright (c) 1988-2019, Gaussian, Inc.  All Rights Reserved.
  
 This is part of the Gaussian(R) 16 program.  It is based on
 the Gaussian(R) 09 system (copyright 2009, Gaussian, Inc.),
 the Gaussian(R) 03 system (copyright 2003, Gaussian, Inc.),
 the Gaussian(R) 98 system (copyright 1998, Gaussian, Inc.),
 the Gaussian(R) 94 system (copyright 1995, Gaussian, Inc.),
 the Gaussian 92(TM) system (copyright 1992, Gaussian, Inc.),
 the Gaussian 90(TM) system (copyright 1990, Gaussian, Inc.),
 the Gaussian 88(TM) system (copyright 1988, Gaussian, Inc.),
 the Gaussian 86(TM) system (copyright 1986, Carnegie Mellon
 University), and the Gaussian 82(TM) system (copyright 1983,
 Carnegie Mellon University). Gaussian is a federally registered
 trademark of Gaussian, Inc.
  
 This software contains proprietary and confidential information,
 including trade secrets, belonging to Gaussian, Inc.
  
 This software is provided under written license and may be
 used, copied, transmitted, or stored only in accord with that
 written license.
  
 The following legend is applicable only to US Government
 contracts under FAR:
  
                    RESTRICTED RIGHTS LEGEND
  
 Use, reproduction and disclosure by the US Government is
 subject to restrictions as set forth in subparagraphs (a)
 and (c) of the Commercial Computer Software - Restricted
 Rights clause in FAR 52.227-19.
  
 Gaussian, Inc.
 340 Quinnipiac St., Bldg. 40, Wallingford CT 06492
  
  
 ---------------------------------------------------------------
 Warning -- This program may not be used in any manner that
 competes with the business of Gaussian, Inc. or will provide
 assistance to any competitor of Gaussian, Inc.  The licensee
 of this program is prohibited from giving any competitor of
 Gaussian, Inc. access to this program.  By using this program,
 the user acknowledges that Gaussian, Inc. is engaged in the
 business of creating and licensing software in the field of
 computational chemistry and represents and warrants to the
 licensee that it is not a competitor of Gaussian, Inc. and that
 it will not use this program in any manner prohibited above.
 ---------------------------------------------------------------
  

 Cite this work as:
 Gaussian 16, Revision C.01,
 M. J. Frisch, G. W. Trucks, H. B. Schlegel, G. E. Scuseria, 
 M. A. Robb, J. R. Cheeseman, G. Scalmani, V. Barone, 
 G. A. Petersson, H. Nakatsuji, X. Li, M. Caricato, A. V. Marenich, 
 J. Bloino, B. G. Janesko, R. Gomperts, B. Mennucci, H. P. Hratchian, 
 J. V. Ortiz, A. F. Izmaylov, J. L. Sonnenberg, D. Williams-Young, 
 F. Ding, F. Lipparini, F. Egidi, J. Goings, B. Peng, A. Petrone, 
 T. Henderson, D. Ranasinghe, V. G. Zakrzewski, J. Gao, N. Rega, 
 G. Zheng, W. Liang, M. Hada, M. Ehara, K. Toyota, R. Fukuda, 
 J. Hasegawa, M. Ishida, T. Nakajima, Y. Honda, O. Kitao, H. Nakai, 
 T. Vreven, K. Throssell, J. A. Montgomery, Jr., J. E. Peralta, 
 F. Ogliaro, M. J. Bearpark, J. J. Heyd, E. N. Brothers, K. N. Kudin, 
 V. N. Staroverov, T. A. Keith, R. Kobayashi, J. Normand, 
 K. Raghavachari, A. P. Rendell, J. C. Burant, S. S. Iyengar, 
 J. Tomasi, M. Cossi, J. M. Millam, M. Klene, C. Adamo, R. Cammi, 
 J. W. Ochterski, R. L. Martin, K. Morokuma, O. Farkas, 
 J. B. Foresman, and D. J. Fox, Gaussian, Inc., Wallingford CT, 2019.
 
 ******************************************
 Gaussian 16:  ES64L-G16RevC.01  3-Jul-2019
                16-Oct-2025 
 ******************************************
 %nprocshared=32
 Will use up to   32 processors via shared memory.
 %mem=64GB
 %oldchk=01BDP-NH2_ethanol_m062x_m062x_m062x.chk
 %chk=03BDP-NH2_ethanol_m062x_m062x_m062x.chk
 Copying data from "01BDP-NH2_ethanol_m062x_m062x_m062x.chk" to current chk file "03BDP-NH2_ethanol_m062x_m062x_m062x.chk"
 IOpt=  2 FromEx=T IUOpen= 4 IOptOp= 5 NList=   0 IFRang= 0 IUIn= 4 IUOut= 2.
 ----------------------------------------------------------------------
 # m062x/def2svp geom=check guess=read TD=(NStates=3, Root=2) SCRF=(SMD
 , solvent=ethanol, CorrectedLR)
 ----------------------------------------------------------------------
 1/29=2,30=1,38=1,172=1/1;
 2/12=2,40=1/2;
 3/5=43,7=101,11=9,14=-4,25=1,30=1,70=32201,71=1,72=4,74=-55,116=-2/1,2,3,8;
 4/5=1/1;
 5/5=2,38=6,53=4/2;
 8/6=1,10=1,107=2,108=3/1;
 9/8=2,15=1,41=3,42=1,70=2,73=21/14;
 10/5=4,13=10,28=2,74=10/2;
 6/7=2,8=2,9=2,10=2,22=-1/1;
 99/5=1,9=1/99;
 ---------------------------------
 BDP-NH2_ethanol_m062x_m062x_m062x
 ---------------------------------
 Structure from the checkpoint file:  "03BDP-NH2_ethanol_m062x_m062x_m062x.chk"
 Charge =  0 Multiplicity = 1
 Redundant internal coordinates found in file.  (old form).
 C,0,0.6243845774,-1.2171156418,-0.0666301741
 C,0,0.6239374979,1.2185309487,0.0343965605
 C,0,-0.0956929235,0.0003598123,-0.0106120108
 C,0,0.1771546202,-2.5493256068,-0.2397382957
 C,0,1.3088545243,-3.3589169482,-0.2920673412
 C,0,2.4184593636,-2.5061846929,-0.1705831734
 H,0,1.3448633416,-4.4378331114,-0.4197195672
 C,0,2.4183632157,2.5097178787,0.1008585368
 C,0,0.1776696764,2.5535933356,0.1870065421
 C,0,1.3094652733,3.3643099276,0.2148591214
 H,0,1.3458474965,4.4456417765,0.3199507726
 N,0,2.010239251,-1.2377317345,-0.0385481672
 N,0,2.0097522153,1.2388483664,-0.0042305606
 B,0,2.9439815186,0.0000805273,0.0072077201
 F,0,3.7091514325,-0.0071101818,1.168475352
 F,0,3.7820256985,0.0075148543,-1.1016166387
 C,0,-1.5567223194,-0.001726551,-0.0031615748
 C,0,-2.2942522574,0.8912831313,-0.8091818472
 C,0,-2.2809421553,-0.8991624768,0.8100781326
 C,0,-3.6764651359,0.8832957885,-0.8151520751
 H,0,-1.7664355524,1.5710644095,-1.4803114159
 C,0,-3.6630212122,-0.8970419231,0.8325954848
 H,0,-1.7419088569,-1.5795519407,1.4716506494
 C,0,-4.3991844832,-0.0073318576,0.0141807221
 H,0,-4.2251292834,1.5622324208,-1.4708708812
 H,0,-4.2010718451,-1.5800388142,1.4928859096
 H,0,-0.8576181502,2.8706064301,0.2857057448
 H,0,3.4797473926,2.7567302739,0.1066680519
 H,0,-0.8589670874,-2.8638136852,-0.3384444306
 H,0,3.4797782219,-2.7527976853,-0.187534765
 N,0,-5.7510711092,0.0034682444,0.0368046062
 H,0,-6.2582584325,-0.7108043368,0.5440462198
 H,0,-6.2670965134,0.5747120625,-0.620486208
 Recover connectivity data from disk.
                           ----------------------------
                           !    Current Parameters    !
                           ! (Angstroms and Degrees)  !
 --------------------------                            --------------------------
 ! Name  Definition              Value                                          !
 --------------------------------------------------------------------------------
 ! R1    R(1,3)                  1.4156                                         !
 ! R2    R(1,4)                  1.4159                                         !
 ! R3    R(1,12)                 1.3863                                         !
 ! R4    R(2,3)                  1.4156                                         !
 ! R5    R(2,9)                  1.4159                                         !
 ! R6    R(2,13)                 1.3865                                         !
 ! R7    R(3,17)                 1.461                                          !
 ! R8    R(4,5)                  1.3925                                         !
 ! R9    R(4,29)                 1.0873                                         !
 ! R10   R(5,6)                  1.4047                                         !
 ! R11   R(5,7)                  1.087                                          !
 ! R12   R(6,12)                 1.339                                          !
 ! R13   R(6,30)                 1.0897                                         !
 ! R14   R(8,10)                 1.4046                                         !
 ! R15   R(8,13)                 1.3391                                         !
 ! R16   R(8,28)                 1.0898                                         !
 ! R17   R(9,10)                 1.3925                                         !
 ! R18   R(9,27)                 1.0872                                         !
 ! R19   R(10,11)                1.087                                          !
 ! R20   R(12,14)                1.5512                                         !
 ! R21   R(13,14)                1.5516                                         !
 ! R22   R(14,15)                1.3907                                         !
 ! R23   R(14,16)                1.3899                                         !
 ! R24   R(17,18)                1.4111                                         !
 ! R25   R(17,19)                1.4111                                         !
 ! R26   R(18,20)                1.3822                                         !
 ! R27   R(18,21)                1.0914                                         !
 ! R28   R(19,22)                1.3823                                         !
 ! R29   R(19,23)                1.0914                                         !
 ! R30   R(20,24)                1.4154                                         !
 ! R31   R(20,25)                1.0918                                         !
 ! R32   R(22,24)                1.4154                                         !
 ! R33   R(22,26)                1.0918                                         !
 ! R34   R(24,31)                1.3521                                         !
 ! R35   R(31,32)                1.0123                                         !
 ! R36   R(31,33)                1.0122                                         !
 ! A1    A(3,1,4)              130.7969                                         !
 ! A2    A(3,1,12)             121.3661                                         !
 ! A3    A(4,1,12)             107.7129                                         !
 ! A4    A(3,2,9)              130.89                                           !
 ! A5    A(3,2,13)             121.3216                                         !
 ! A6    A(9,2,13)             107.7105                                         !
 ! A7    A(1,3,2)              118.8671                                         !
 ! A8    A(1,3,17)             120.507                                          !
 ! A9    A(2,3,17)             120.6257                                         !
 ! A10   A(1,4,5)              107.1533                                         !
 ! A11   A(1,4,29)             125.7496                                         !
 ! A12   A(5,4,29)             127.0788                                         !
 ! A13   A(4,5,6)              106.6069                                         !
 ! A14   A(4,5,7)              127.4743                                         !
 ! A15   A(6,5,7)              125.9102                                         !
 ! A16   A(5,6,12)             110.0457                                         !
 ! A17   A(5,6,30)             129.0953                                         !
 ! A18   A(12,6,30)            120.8519                                         !
 ! A19   A(10,8,13)            110.0532                                         !
 ! A20   A(10,8,28)            129.0916                                         !
 ! A21   A(13,8,28)            120.8464                                         !
 ! A22   A(2,9,10)             107.1542                                         !
 ! A23   A(2,9,27)             125.7913                                         !
 ! A24   A(10,9,27)            127.0411                                         !
 ! A25   A(8,10,9)             106.6078                                         !
 ! A26   A(8,10,11)            125.9192                                         !
 ! A27   A(9,10,11)            127.4662                                         !
 ! A28   A(1,12,6)             108.4727                                         !
 ! A29   A(1,12,14)            126.1923                                         !
 ! A30   A(6,12,14)            125.1213                                         !
 ! A31   A(2,13,8)             108.4643                                         !
 ! A32   A(2,13,14)            126.1502                                         !
 ! A33   A(8,13,14)            124.9883                                         !
 ! A34   A(12,14,13)           105.9283                                         !
 ! A35   A(12,14,15)           110.5915                                         !
 ! A36   A(12,14,16)           110.1015                                         !
 ! A37   A(13,14,15)           109.9721                                         !
 ! A38   A(13,14,16)           110.664                                          !
 ! A39   A(15,14,16)           109.538                                          !
 ! A40   A(3,17,18)            121.2555                                         !
 ! A41   A(3,17,19)            121.1356                                         !
 ! A42   A(18,17,19)           117.6089                                         !
 ! A43   A(17,18,20)           121.4313                                         !
 ! A44   A(17,18,21)           119.5164                                         !
 ! A45   A(20,18,21)           118.9833                                         !
 ! A46   A(17,19,22)           121.4376                                         !
 ! A47   A(17,19,23)           119.4942                                         !
 ! A48   A(22,19,23)           119.0063                                         !
 ! A49   A(18,20,24)           120.7776                                         !
 ! A50   A(18,20,25)           120.1016                                         !
 ! A51   A(24,20,25)           119.1185                                         !
 ! A52   A(19,22,24)           120.7698                                         !
 ! A53   A(19,22,26)           120.1092                                         !
 ! A54   A(24,22,26)           119.1188                                         !
 ! A55   A(20,24,22)           117.9544                                         !
 ! A56   A(20,24,31)           121.0178                                         !
 ! A57   A(22,24,31)           121.0222                                         !
 ! A58   A(24,31,32)           120.2448                                         !
 ! A59   A(24,31,33)           120.2212                                         !
 ! A60   A(32,31,33)           117.9146                                         !
 ! D1    D(4,1,3,2)           -173.509                                          !
 ! D2    D(4,1,3,17)             6.3244                                         !
 ! D3    D(12,1,3,2)             1.9136                                         !
 ! D4    D(12,1,3,17)         -178.253                                          !
 ! D5    D(3,1,4,5)            176.8326                                         !
 ! D6    D(3,1,4,29)            -1.6987                                         !
 ! D7    D(12,1,4,5)             0.9347                                         !
 ! D8    D(12,1,4,29)         -177.5966                                         !
 ! D9    D(3,1,12,6)          -177.007                                          !
 ! D10   D(3,1,12,14)           -2.1202                                         !
 ! D11   D(4,1,12,6)            -0.6432                                         !
 ! D12   D(4,1,12,14)          174.2435                                         !
 ! D13   D(9,2,3,1)           -174.9764                                         !
 ! D14   D(9,2,3,17)             5.1905                                         !
 ! D15   D(13,2,3,1)             1.3942                                         !
 ! D16   D(13,2,3,17)         -178.4389                                         !
 ! D17   D(3,2,9,10)           177.7548                                         !
 ! D18   D(3,2,9,27)            -0.9844                                         !
 ! D19   D(13,2,9,10)            1.0091                                         !
 ! D20   D(13,2,9,27)         -177.7301                                         !
 ! D21   D(3,2,13,8)          -177.8235                                         !
 ! D22   D(3,2,13,14)           -4.7967                                         !
 ! D23   D(9,2,13,8)            -0.703                                          !
 ! D24   D(9,2,13,14)          172.3238                                         !
 ! D25   D(1,3,17,18)         -135.3722                                         !
 ! D26   D(1,3,17,19)           44.5451                                         !
 ! D27   D(2,3,17,18)           44.4582                                         !
 ! D28   D(2,3,17,19)         -135.6245                                         !
 ! D29   D(1,4,5,6)             -0.8591                                         !
 ! D30   D(1,4,5,7)           -179.838                                          !
 ! D31   D(29,4,5,6)           177.6469                                         !
 ! D32   D(29,4,5,7)            -1.332                                          !
 ! D33   D(4,5,6,12)             0.484                                          !
 ! D34   D(4,5,6,30)          -178.5401                                         !
 ! D35   D(7,5,6,12)           179.4835                                         !
 ! D36   D(7,5,6,30)             0.4593                                         !
 ! D37   D(5,6,12,1)             0.1031                                         !
 ! D38   D(5,6,12,14)         -174.852                                          !
 ! D39   D(30,6,12,1)          179.2209                                         !
 ! D40   D(30,6,12,14)           4.2658                                         !
 ! D41   D(13,8,10,9)            0.5087                                         !
 ! D42   D(13,8,10,11)         179.6161                                         !
 ! D43   D(28,8,10,9)         -178.4033                                         !
 ! D44   D(28,8,10,11)           0.7041                                         !
 ! D45   D(10,8,13,2)            0.1253                                         !
 ! D46   D(10,8,13,14)        -173.0024                                         !
 ! D47   D(28,8,13,2)          179.1417                                         !
 ! D48   D(28,8,13,14)           6.014                                          !
 ! D49   D(2,9,10,8)            -0.9194                                         !
 ! D50   D(2,9,10,11)          179.9913                                         !
 ! D51   D(27,9,10,8)          177.7993                                         !
 ! D52   D(27,9,10,11)          -1.2899                                         !
 ! D53   D(1,12,14,13)          -0.7204                                         !
 ! D54   D(1,12,14,15)         118.4013                                         !
 ! D55   D(1,12,14,16)        -120.4052                                         !
 ! D56   D(6,12,14,13)         173.3476                                         !
 ! D57   D(6,12,14,15)         -67.5307                                         !
 ! D58   D(6,12,14,16)          53.6628                                         !
 ! D59   D(2,13,14,12)           4.1646                                         !
 ! D60   D(2,13,14,15)        -115.3645                                         !
 ! D61   D(2,13,14,16)         123.4799                                         !
 ! D62   D(8,13,14,12)         176.0844                                         !
 ! D63   D(8,13,14,15)          56.5553                                         !
 ! D64   D(8,13,14,16)         -64.6002                                         !
 ! D65   D(3,17,18,20)         179.3351                                         !
 ! D66   D(3,17,18,21)           2.3894                                         !
 ! D67   D(19,17,18,20)         -0.585                                          !
 ! D68   D(19,17,18,21)       -177.5307                                         !
 ! D69   D(3,17,19,22)         179.3089                                         !
 ! D70   D(3,17,19,23)           2.2011                                         !
 ! D71   D(18,17,19,22)         -0.7709                                         !
 ! D72   D(18,17,19,23)       -177.8787                                         !
 ! D73   D(17,18,20,24)          1.3801                                         !
 ! D74   D(17,18,20,25)       -178.0543                                         !
 ! D75   D(21,18,20,24)        178.3417                                         !
 ! D76   D(21,18,20,25)         -1.0926                                         !
 ! D77   D(17,19,22,24)          1.3311                                         !
 ! D78   D(17,19,22,26)       -178.1163                                         !
 ! D79   D(23,19,22,24)        178.4527                                         !
 ! D80   D(23,19,22,26)         -0.9947                                         !
 ! D81   D(18,20,24,22)         -0.8109                                         !
 ! D82   D(18,20,24,31)        178.3439                                         !
 ! D83   D(25,20,24,22)        178.6289                                         !
 ! D84   D(25,20,24,31)         -2.2162                                         !
 ! D85   D(19,22,24,20)         -0.529                                          !
 ! D86   D(19,22,24,31)       -179.6838                                         !
 ! D87   D(26,22,24,20)        178.9238                                         !
 ! D88   D(26,22,24,31)         -0.231                                          !
 ! D89   D(20,24,31,32)        172.4195                                         !
 ! D90   D(20,24,31,33)          7.2254                                         !
 ! D91   D(22,24,31,32)         -8.4516                                         !
 ! D92   D(22,24,31,33)       -173.6457                                         !
 --------------------------------------------------------------------------------
                          Input orientation:                          
 ---------------------------------------------------------------------
 Center     Atomic      Atomic             Coordinates (Angstroms)
 Number     Number       Type             X           Y           Z
 ---------------------------------------------------------------------
      1          6           0        0.624385   -1.217116   -0.066630
      2          6           0        0.623937    1.218531    0.034397
      3          6           0       -0.095693    0.000360   -0.010612
      4          6           0        0.177155   -2.549326   -0.239738
      5          6           0        1.308855   -3.358917   -0.292067
      6          6           0        2.418459   -2.506185   -0.170583
      7          1           0        1.344863   -4.437833   -0.419720
      8          6           0        2.418363    2.509718    0.100859
      9          6           0        0.177670    2.553593    0.187007
     10          6           0        1.309465    3.364310    0.214859
     11          1           0        1.345847    4.445642    0.319951
     12          7           0        2.010239   -1.237732   -0.038548
     13          7           0        2.009752    1.238848   -0.004231
     14          5           0        2.943982    0.000081    0.007208
     15          9           0        3.709151   -0.007110    1.168475
     16          9           0        3.782026    0.007515   -1.101617
     17          6           0       -1.556722   -0.001727   -0.003162
     18          6           0       -2.294252    0.891283   -0.809182
     19          6           0       -2.280942   -0.899162    0.810078
     20          6           0       -3.676465    0.883296   -0.815152
     21          1           0       -1.766436    1.571064   -1.480311
     22          6           0       -3.663021   -0.897042    0.832595
     23          1           0       -1.741909   -1.579552    1.471651
     24          6           0       -4.399184   -0.007332    0.014181
     25          1           0       -4.225129    1.562232   -1.470871
     26          1           0       -4.201072   -1.580039    1.492886
     27          1           0       -0.857618    2.870606    0.285706
     28          1           0        3.479747    2.756730    0.106668
     29          1           0       -0.858967   -2.863814   -0.338444
     30          1           0        3.479778   -2.752798   -0.187535
     31          7           0       -5.751071    0.003468    0.036805
     32          1           0       -6.258258   -0.710804    0.544046
     33          1           0       -6.267097    0.574712   -0.620486
 ---------------------------------------------------------------------
                    Distance matrix (angstroms):
                    1          2          3          4          5
     1  C    0.000000
     2  C    2.437741   0.000000
     3  C    1.415590   1.415569   0.000000
     4  C    1.415897   3.804144   2.574459   0.000000
     5  C    2.259786   4.639905   3.651946   1.392451   0.000000
     6  C    2.211608   4.139545   3.553775   2.242786   1.404683
     7  H    3.319154   5.720176   4.684029   2.227644   1.087038
     8  C    4.139529   2.211684   3.553840   5.543730   5.985505
     9  C    3.805540   1.415922   2.575419   5.120732   6.038780
    10  C    4.640909   2.259841   3.652597   6.038201   6.742311
    11  H    5.721606   3.319178   4.684852   7.113977   7.828606
    12  N    1.386292   2.821415   2.443072   2.262953   2.248475
    13  N    2.820443   1.386502   2.442702   4.214753   4.659780
    14  B    2.620601   2.620680   3.039727   3.770383   3.747809
    15  F    3.536295   3.508116   3.983358   4.573940   4.373696
    16  F    3.541414   3.567998   4.028281   4.502817   4.254975
    17  C    2.497684   2.499143   1.461050   3.090721   4.423316
    18  C    3.676298   3.055249   2.503022   4.274331   5.595890
    19  C    3.051333   3.677585   2.501597   3.141241   4.489071
    20  C    4.844515   4.396314   3.774757   5.192723   6.566841
    21  H    3.935539   2.851754   2.723694   4.721671   5.930771
    22  C    4.392369   4.846729   3.773879   4.315888   5.660852
    23  H    2.845525   3.936013   2.720892   2.748112   3.947657
    24  C    5.167819   5.170581   4.303570   5.241096   6.626358
    25  H    5.763198   5.088950   4.650166   6.148227   7.498818
    26  H    5.084175   5.765405   4.648903   4.807325   6.058857
    27  H    4.362332   2.233275   2.984401   5.542789   6.620754
    28  H    4.896384   3.244523   4.516094   6.259500   6.501762
    29  H    2.232897   4.359307   2.982206   1.087287   2.224124
    30  H    3.244412   4.896584   4.516101   3.309297   2.256373
    31  N    6.492069   6.489770   5.655578   6.460425   7.826643
    32  H    6.928207   7.165661   6.228211   6.738622   8.060570
    33  H    7.142123   6.951958   6.228005   7.171677   8.542618
                    6          7          8          9         10
     6  C    0.000000
     7  H    2.223948   0.000000
     8  C    5.023242   7.049246   0.000000
     9  C    5.545301   7.114106   2.242778   0.000000
    10  C    5.986747   7.827987   1.404627   1.392479   0.000000
    11  H    7.051171   8.914216   2.223981   2.227591   1.087036
    12  N    1.339048   3.290694   3.772185   4.217029   4.661983
    13  N    3.770940   5.730569   1.339073   2.263107   2.248553
    14  B    2.566934   4.736510   2.565799   3.768983   3.746038
    15  F    3.115179   5.267212   3.023303   4.471224   4.246687
    16  F    3.007461   5.115258   3.092983   4.597222   4.372040
    17  C    4.701320   5.317120   4.703135   3.094178   4.426372
    18  C    5.844677   6.464853   5.065200   3.141029   4.489020
    19  C    5.062469   5.213546   5.848669   4.284217   5.605578
    20  C    7.003724   7.326972   6.374265   4.318399   5.663555
    21  H    5.987712   6.849225   4.570964   2.743147   3.943412
    22  C    6.370252   6.259745   7.008901   5.203323   6.577715
    23  H    4.567739   4.612506   5.992417   4.734763   5.944088
    24  C    7.263516   7.267166   7.267875   5.247457   6.633018
    25  H    7.898103   8.254122   6.892319   4.807909   6.059778
    26  H    6.887893   6.525523   7.904478   6.161624   7.513052
    27  H    6.312746   7.665627   3.300979   1.087226   2.223739
    28  H    5.376009   7.523068   1.089764   3.309295   2.256321
    29  H    3.301151   2.709430   6.309415   5.540669   6.617988
    30  H    1.089726   2.729673   5.376229   6.261149   6.503167
    31  N    8.548836   8.383666   8.545469   6.455669   7.821645
    32  H    8.889292   8.522150   9.265632   7.225299   8.601474
    33  H    9.226766   9.116351   8.927586   6.789921   8.116893
                   11         12         13         14         15
    11  H    0.000000
    12  N    5.733295   0.000000
    13  N    3.290803   2.476818   0.000000
    14  B    4.734433   1.551176   1.551599   0.000000
    15  F    5.111966   2.420256   2.411557   1.390712   0.000000
    16  F    5.258592   2.412464   2.421031   1.389915   2.271308
    17  C    5.320564   3.775205   3.776078   4.500716   5.394644
    18  C    5.211404   4.863664   4.392403   5.375856   6.384285
    19  C    6.477713   4.387372   4.862535   5.362189   6.066748
    20  C    6.261181   6.118862   5.754744   6.729536   7.699022
    21  H    4.603308   4.922529   4.068019   5.183506   6.284008
    22  C    7.341379   5.749856   6.119041   6.718525   7.433285
    23  H    6.867577   4.059083   4.919001   5.157267   5.681421
    24  C    7.275154   6.526667   6.528995   7.343173   8.190086
    25  H    6.523563   6.983636   6.413217   7.484730   8.507749
    26  H    8.273628   6.406469   6.982966   7.466981   8.071616
    27  H    2.708721   5.020776   3.311874   4.771754   5.469545
    28  H    2.729733   4.258670   2.115928   2.809992   2.969659
    29  H    7.663082   3.311559   5.017279   4.773236   5.594575
    30  H    7.525206   2.115932   4.257677   2.811288   3.070859
    31  N    8.377310   7.860292   7.858640   8.695104   9.527676
    32  H    9.190298   8.305728   8.512447   9.245257  10.011711
    33  H    8.592173   8.493403   8.326288   9.250306  10.152065
                   16         17         18         19         20
    16  F    0.000000
    17  C    5.450589   0.000000
    18  C    6.147172   1.411058   0.000000
    19  C    6.421543   1.411115   2.414099   0.000000
    20  C    7.515194   2.436371   1.382249   2.786757   0.000000
    21  H    5.776982   2.167861   1.091379   3.407730   2.136276
    22  C    7.745200   2.436509   2.786946   1.382264   2.425872
    23  H    6.297169   2.167694   3.407683   1.091405   3.877834
    24  C    8.256962   2.842521   2.432319   2.432235   1.415392
    25  H    8.165049   3.423527   2.148556   3.878280   1.091767
    26  H    8.542928   3.423713   3.878519   2.148655   3.416178
    27  H    5.625678   2.970267   2.679630   4.063493   3.620385
    28  H    3.018196   5.743446   6.136591   6.859000   7.454588
    29  H    5.510515   2.964932   4.047516   2.683463   4.712364
    30  H    2.923393   5.741840   6.856034   6.133278   8.051515
    31  N    9.600831   4.194542   3.667902   3.668036   2.409132
    32  H   10.199583   4.786091   4.484557   3.990651   3.324790
    33  H   10.076609   4.785499   3.989902   4.484222   2.616198
                   21         22         23         24         25
    21  H    0.000000
    22  C    3.877902   0.000000
    23  H    4.317530   2.136559   0.000000
    24  C    3.414119   1.415388   3.414265   0.000000
    25  H    2.458728   3.416131   4.969469   2.167765   0.000000
    26  H    4.969588   1.091772   2.459255   2.167770   4.319526
    27  H    2.373515   4.729117   4.689600   4.571537   4.017155
    28  H    5.607740   8.055816   6.923310   8.350219   7.954909
    29  H    4.668565   3.619702   2.388589   4.562562   5.674797
    30  H    6.920247   7.450106   5.603161   8.346036   8.923678
    31  N    4.542722   2.409181   4.542920   1.352119   2.651665
    32  H    5.429680   2.617862   4.691757   2.057131   3.655161
    33  H    4.689133   3.325465   5.430950   2.056860   2.422392
                   26         27         28         29         30
    26  H    0.000000
    27  H    5.695982   0.000000
    28  H    8.928838   4.342552   0.000000
    29  H    4.021382   5.768287   7.114287   0.000000
    30  H    7.949505   7.117558   5.517377   4.342788   0.000000
    31  N    2.651446   5.676999   9.632930   5.682851   9.636177
    32  H    2.426496   6.485380  10.346200   5.879336   9.976688
    33  H    3.657561   5.945988  10.014536   6.414894  10.308314
                   31         32         33
    31  N    0.000000
    32  H    1.012284   0.000000
    33  H    1.012242   1.734580   0.000000
 Stoichiometry    C15H12BF2N3
 Framework group  C1[X(C15H12BF2N3)]
 Deg. of freedom    93
 Full point group                 C1      NOp   1
 Largest Abelian subgroup         C1      NOp   1
 Largest concise Abelian subgroup C1      NOp   1
                         Standard orientation:                         
 ---------------------------------------------------------------------
 Center     Atomic      Atomic             Coordinates (Angstroms)
 Number     Number       Type             X           Y           Z
 ---------------------------------------------------------------------
      1          6           0        0.621981   -1.216876   -0.058200
      2          6           0        0.625721    1.218785    0.042418
      3          6           0       -0.096014    0.001917   -0.004138
      4          6           0        0.172749   -2.548300   -0.232173
      5          6           0        1.303098   -3.359958   -0.281614
      6          6           0        2.413954   -2.509225   -0.157574
      7          1           0        1.337453   -4.438960   -0.408998
      8          6           0        2.422327    2.506716    0.113028
      9          6           0        0.181514    2.554683    0.193718
     10          6           0        1.314712    3.363344    0.224188
     11          1           0        1.352807    4.444626    0.329187
     12          7           0        2.007723   -1.240009   -0.026744
     13          7           0        2.011660    1.236574    0.007158
     14          5           0        2.943603   -0.003890    0.021076
     15          9           0        3.705932   -0.012274    1.184202
     16          9           0        3.784353    0.001829   -1.085708
     17          6           0       -1.557058    0.002491   -0.000240
     18          6           0       -2.290999    0.896703   -0.808202
     19          6           0       -2.284886   -0.893486    0.811385
     20          6           0       -3.673206    0.891229   -0.817532
     21          1           0       -1.760316    1.575407   -1.478159
     22          6           0       -3.667010   -0.888847    0.830541
     23          1           0       -1.748702   -1.574742    1.474381
     24          6           0       -4.399560    0.002061    0.010189
     25          1           0       -4.219037    1.571051   -1.474697
     26          1           0       -4.207907   -1.570750    1.489635
     27          1           0       -0.853432    2.873597    0.289846
     28          1           0        3.484142    2.751798    0.121378
     29          1           0       -0.863700   -2.860919   -0.333347
     30          1           0        3.474860   -2.757772   -0.171903
     31          7           0       -5.751475    0.015325    0.029523
     32          1           0       -6.261194   -0.697937    0.535649
     33          1           0       -6.264860    0.587394   -0.629117
 ---------------------------------------------------------------------
 Rotational constants (GHZ):           0.5795983           0.2151487           0.1666608
 Standard basis: def2SVP (5D, 7F)
 There are   375 symmetry adapted cartesian basis functions of A   symmetry.
 There are   354 symmetry adapted basis functions of A   symmetry.
   354 basis functions,   609 primitive gaussians,   375 cartesian basis functions
    73 alpha electrons       73 beta electrons
       nuclear repulsion energy      1590.1687407230 Hartrees.
 NAtoms=   33 NActive=   33 NUniq=   33 SFac= 1.00D+00 NAtFMM=   60 NAOKFM=F Big=F
 Integral buffers will be    131072 words long.
 Regular integral format.
 Two-electron integral symmetry is turned on.
 ------------------------------------------------------------------------------
 Polarizable Continuum Model (PCM)
 =================================
 Model                : PCM.
 Atomic radii         : SMD-Coulomb.
 Polarization charges : Total charges.
 Charge compensation  : None.
 Solution method      : On-the-fly selection.
 Cavity type          : VdW (van der Waals Surface) (Alpha=1.000).
 Cavity algorithm     : GePol (No added spheres)
                        Default sphere list used, NSphG=   33.
                        Lebedev-Laikov grids with approx.  5.0 points / Ang**2.
                        Smoothing algorithm: York/Karplus (Gamma=1.0000).
                        Polarization charges: spherical gaussians, with
                                              point-specific exponents (IZeta= 3).
                        Self-potential: point-specific (ISelfS= 7).
                        Self-field    : sphere-specific E.n sum rule (ISelfD= 2).
 1st derivatives      : Analytical E(r).r(x)/FMM algorithm (CHGder, D1EAlg=3).
                        Cavity 1st derivative terms included.
 Solvent              : Ethanol, Eps=  24.852000 Eps(inf)=   1.852593
 ------------------------------------------------------------------------------
 ------------------------------------------------------------------------------
 Atomic radii for non-electrostatic terms: SMD-CDS.
 ------------------------------------------------------------------------------
 Nuclear repulsion after PCM non-electrostatic terms =     1590.1679438521 Hartrees.
 One-electron integrals computed using PRISM.
   1 Symmetry operations used in ECPInt.
 ECPInt:  NShTT=   13203 NPrTT=   49137 LenC2=   11971 LenP2D=   31031.
 LDataN:  DoStor=T MaxTD1= 4 Len=   56
 NBasis=   354 RedAO= T EigKep=  2.61D-04  NBF=   354
 NBsUse=   354 1.00D-06 EigRej= -1.00D+00 NBFU=   354
 Initial guess from the checkpoint file:  "03BDP-NH2_ethanol_m062x_m062x_m062x.chk"
 B after Tr=     0.000000    0.000000    0.000000
         Rot=    1.000000   -0.000000    0.000000   -0.000000 Ang=   0.00 deg.
 Requested convergence on RMS density matrix=1.00D-08 within 128 cycles.
 Requested convergence on MAX density matrix=1.00D-06.
 Requested convergence on             energy=1.00D-06.
 No special actions if energy rises.
 Inv3:  Mode=1 IEnd=    19691532.
 Iteration    1 A*A^-1 deviation from unit magnitude is 7.44D-15 for   2548.
 Iteration    1 A*A^-1 deviation from orthogonality  is 1.93D-15 for   1929   1700.
 Iteration    1 A^-1*A deviation from unit magnitude is 7.66D-15 for   2548.
 Iteration    1 A^-1*A deviation from orthogonality  is 1.46D-15 for   2255    848.
 Error on total polarization charges =  0.03892
 SCF Done:  E(RM062X) =  -966.749116138     A.U. after   12 cycles
            NFock= 12  Conv=0.43D-08     -V/T= 2.0096
 SMD-CDS (non-electrostatic) energy       (kcal/mol) =      -0.50
 (included in total energy above)
 DoSCS=F DFT=T ScalE2(SS,OS)=  1.000000  1.000000
 ExpMin= 8.36D-02 ExpMax= 2.89D+03 ExpMxC= 4.35D+02 IAcc=3 IRadAn=         5 AccDes= 0.00D+00
 HarFok:  IExCor=  205 AccDes= 0.00D+00 IRadAn=         5 IDoV=-2 UseB2=F ITyADJ=14
 ICtDFT= 12500011 ScaDFX=  1.000000  1.000000  1.000000  1.000000
 GSVD:  LWork=        -609 too small for GESVD, short by        2520 words or        2520 for optimal perf.
 Range of M.O.s used for correlation:    22   354
 NBasis=   354 NAE=    73 NBE=    73 NFC=    21 NFV=     0
 NROrb=    333 NOA=    52 NOB=    52 NVA=   281 NVB=   281

 **** Warning!!: The largest alpha MO coefficient is  0.15383812D+02

 Keep R1, R2, and R3 ints in memory in canonical form, NReq=6183477328.
 NEqPCM:  Using non-equilibrium solvation (IEInf=1, Eps=  24.8520, EpsInf=   1.8526)
 Inv3:  Mode=1 IEnd=    19691532.
 Iteration    1 A*A^-1 deviation from unit magnitude is 5.33D-15 for   2544.
 Iteration    1 A*A^-1 deviation from orthogonality  is 2.24D-15 for   2550   1085.
 Iteration    1 A^-1*A deviation from unit magnitude is 5.33D-15 for   2544.
 Iteration    1 A^-1*A deviation from orthogonality  is 2.10D-15 for   1607   1131.
 Orbital symmetries:
       Occupied  (A) (A) (A) (A) (A) (A) (A) (A) (A) (A) (A) (A)
                 (A) (A) (A) (A) (A) (A) (A) (A) (A) (A) (A) (A)
                 (A) (A) (A) (A) (A) (A) (A) (A) (A) (A) (A) (A)
                 (A) (A) (A) (A) (A) (A) (A) (A) (A) (A) (A) (A)
                 (A) (A) (A) (A) (A) (A) (A) (A) (A) (A) (A) (A)
                 (A) (A) (A) (A) (A) (A) (A) (A) (A) (A) (A) (A)
                 (A)
       Virtual   (A) (A) (A) (A) (A) (A) (A) (A) (A) (A) (A) (A)
                 (A) (A) (A) (A) (A) (A) (A) (A) (A) (A) (A) (A)
                 (A) (A) (A) (A) (A) (A) (A) (A) (A) (A) (A) (A)
                 (A) (A) (A) (A) (A) (A) (A) (A) (A) (A) (A) (A)
                 (A) (A) (A) (A) (A) (A) (A) (A) (A) (A) (A) (A)
                 (A) (A) (A) (A) (A) (A) (A) (A) (A) (A) (A) (A)
                 (A) (A) (A) (A) (A) (A) (A) (A) (A) (A) (A) (A)
                 (A) (A) (A) (A) (A) (A) (A) (A) (A) (A) (A) (A)
                 (A) (A) (A) (A) (A) (A) (A) (A) (A) (A) (A) (A)
                 (A) (A) (A) (A) (A) (A) (A) (A) (A) (A) (A) (A)
                 (A) (A) (A) (A) (A) (A) (A) (A) (A) (A) (A) (A)
                 (A) (A) (A) (A) (A) (A) (A) (A) (A) (A) (A) (A)
                 (A) (A) (A) (A) (A) (A) (A) (A) (A) (A) (A) (A)
                 (A) (A) (A) (A) (A) (A) (A) (A) (A) (A) (A) (A)
                 (A) (A) (A) (A) (A) (A) (A) (A) (A) (A) (A) (A)
                 (A) (A) (A) (A) (A) (A) (A) (A) (A) (A) (A) (A)
                 (A) (A) (A) (A) (A) (A) (A) (A) (A) (A) (A) (A)
                 (A) (A) (A) (A) (A) (A) (A) (A) (A) (A) (A) (A)
                 (A) (A) (A) (A) (A) (A) (A) (A) (A) (A) (A) (A)
                 (A) (A) (A) (A) (A) (A) (A) (A) (A) (A) (A) (A)
                 (A) (A) (A) (A) (A) (A) (A) (A) (A) (A) (A) (A)
                 (A) (A) (A) (A) (A) (A) (A) (A) (A) (A) (A) (A)
                 (A) (A) (A) (A) (A) (A) (A) (A) (A) (A) (A) (A)
                 (A) (A) (A) (A) (A)
    12 initial guesses have been made.
 Convergence on wavefunction:    0.000001000000000
 Iteration     1 Dimension    12 NMult     0 NNew     12
 CISAX will form    12 AO SS matrices at one time.
 Iteration     2 Dimension    18 NMult    12 NNew      6
 Iteration     3 Dimension    24 NMult    18 NNew      6
 Iteration     4 Dimension    30 NMult    24 NNew      6
 Iteration     5 Dimension    36 NMult    30 NNew      6
 Iteration     6 Dimension    42 NMult    36 NNew      6
 Iteration     7 Dimension    48 NMult    42 NNew      6
 Iteration     8 Dimension    54 NMult    48 NNew      6
 Iteration     9 Dimension    60 NMult    54 NNew      6
 Iteration    10 Dimension    66 NMult    60 NNew      6
 Iteration    11 Dimension    70 NMult    66 NNew      4
 Iteration    12 Dimension    72 NMult    70 NNew      2
 PCM Corrected Linear-Response:
 The state of interest is root number   2
 Excitation energy =    3.1989 eV, Total energy =  -966.631557293    
 Recompute the excitation energies using the linear response reaction field.
 Convergence on wavefunction:    0.000001000000000
 Iteration     1 Dimension     3 NMult     0 NNew      3
 Iteration     2 Dimension     9 NMult     3 NNew      6
 Iteration     3 Dimension    15 NMult     9 NNew      6
 Iteration     4 Dimension    21 NMult    15 NNew      6
 Iteration     5 Dimension    27 NMult    21 NNew      6
 Iteration     6 Dimension    33 NMult    27 NNew      6
 Iteration     7 Dimension    39 NMult    33 NNew      6
 Iteration     8 Dimension    45 NMult    39 NNew      6
 Iteration     9 Dimension    51 NMult    45 NNew      6
 Iteration    10 Dimension    57 NMult    51 NNew      6
 Iteration    11 Dimension    61 NMult    57 NNew      4
 Iteration    12 Dimension    63 NMult    61 NNew      2
 Iteration    13 Dimension    65 NMult    63 NNew      2
 Iteration    14 Dimension    67 NMult    65 NNew      2
 ***********************************************************************
 Excited states from <AA,BB:AA,BB> singles matrix:
 ***********************************************************************
 
 Ground to excited state transition densities written to RWF  633
 Ground to excited state transition electric dipole moments (Au):
       state          X           Y           Z        Dip. S.      Osc.
         1         2.5927     -0.0032     -0.0156      6.7222      0.4691
         2         0.0049      2.6312      0.1977      6.9621      0.5188
         3        -0.0045     -0.8361     -0.1126      0.7118      0.0712
 Ground to excited state transition velocity dipole moments (Au):
       state          X           Y           Z        Dip. S.      Osc.
         1        -0.2669      0.0002      0.0015      0.0712      0.4537
         2        -0.0006     -0.2970     -0.0228      0.0887      0.5290
         3         0.0007      0.1312      0.0189      0.0176      0.0780
 Ground to excited state transition magnetic dipole moments (Au):
       state          X           Y           Z
         1         0.0570      0.0030     -0.0017
         2        -0.0028     -0.0599      0.5550
         3         0.0007     -0.1596      1.3133
 Ground to excited state transition velocity quadrupole moments (Au):
       state          XX          YY          ZZ          XY          XZ          YZ
         1         1.5111     -0.6612      0.0231     -0.0050     -0.0033     -0.1002
         2        -0.0036     -0.0003      0.0018     -0.9829     -0.0303      0.0137
         3        -0.0016      0.0035     -0.0009      0.0264     -0.0273     -0.0034
 <0|del|b> * <b|rxdel|0> + <0|del|b> * <b|delr+rdel|0>
 Rotatory Strengths (R) in cgs (10**-40 erg-esu-cm/Gauss)
       state          XX          YY          ZZ    R(velocity)    E-M Angle
         1        -0.0286     38.9510   -141.7920    -34.2899      176.68
         2        58.6913   -110.9413     84.8228     10.8576       88.23
         3        18.8378     57.3817    -57.7718      6.1493       88.72
 1/2[<0|r|b>*<b|rxdel|0> + (<0|rxdel|b>*<b|r|0>)*]
 Rotatory Strengths (R) in cgs (10**-40 erg-esu-cm/Gauss)
       state          XX          YY          ZZ     R(length)
         1      -104.5867      0.0067     -0.0189    -34.8663
         2         0.0097    111.5413    -77.5894     11.3206
         3         0.0021    -94.3957    104.5874      3.3979
  1/2[<0|del|b>*<b|r|0> + (<0|r|b>*<b|del|0>)*] (Au)
       state          X           Y           Z        Dip. S.   Osc.(frdel)
         1        -0.6920     -0.0000     -0.0000      0.6921      0.4614
         2        -0.0000     -0.7814     -0.0045      0.7859      0.5239
         3        -0.0000     -0.1097     -0.0021      0.1118      0.0746

 Excitation energies and oscillator strengths:
 
 Excited State   1:      Singlet-A      2.8486 eV  435.25 nm  f=0.4691  <S**2>=0.000
      73 -> 74         0.69818
 
 Excited State   2:      Singlet-A      3.0418 eV  407.60 nm  f=0.5188  <S**2>=0.000
      72 -> 74         0.69893
 This state for optimization and/or second-order correction.
 Total Energy, E(TD-HF/TD-DFT) =  -966.637330368    
 Copying the excited state density for this state as the 1-particle RhoCI density.
 
 Excited State   3:      Singlet-A      4.0847 eV  303.53 nm  f=0.0712  <S**2>=0.000
      70 -> 74        -0.21187
      71 -> 74         0.66596
 SavETr:  write IOETrn=   770 NScale= 10 NData=  16 NLR=1 NState=    3 LETran=      64.
 NEqPCM:  Using equilibrium solvation (IEInf=0, Eps=  24.8520, EpsInf=   1.8526)
          Differentiating once with respect to electric field.
                with respect to dipole field.
          Electric field/nuclear overlap derivatives assumed to be zero.
          There are     1 degrees of freedom in the 1st order CPHF.  IDoFFX=0 NUNeed=     1.
 LinEq1:  Iter=  0 NonCon=     1 RMS=4.16D-03 Max=3.48D-01 NDo=     1
 AX will form     1 AO Fock derivatives at one time.
 LinEq1:  Iter=  1 NonCon=     1 RMS=1.79D-03 Max=1.52D-01 NDo=     1
 LinEq1:  Iter=  2 NonCon=     1 RMS=9.09D-04 Max=4.67D-02 NDo=     1
 LinEq1:  Iter=  3 NonCon=     1 RMS=2.58D-04 Max=1.50D-02 NDo=     1
 LinEq1:  Iter=  4 NonCon=     1 RMS=1.30D-04 Max=6.40D-03 NDo=     1
 LinEq1:  Iter=  5 NonCon=     1 RMS=5.77D-05 Max=3.42D-03 NDo=     1
 LinEq1:  Iter=  6 NonCon=     1 RMS=3.51D-05 Max=1.84D-03 NDo=     1
 LinEq1:  Iter=  7 NonCon=     1 RMS=1.54D-05 Max=6.10D-04 NDo=     1
 LinEq1:  Iter=  8 NonCon=     1 RMS=7.37D-06 Max=2.36D-04 NDo=     1
 LinEq1:  Iter=  9 NonCon=     1 RMS=2.60D-06 Max=6.76D-05 NDo=     1
 LinEq1:  Iter= 10 NonCon=     1 RMS=8.32D-07 Max=3.46D-05 NDo=     1
 LinEq1:  Iter= 11 NonCon=     1 RMS=4.33D-07 Max=1.64D-05 NDo=     1
 LinEq1:  Iter= 12 NonCon=     1 RMS=1.03D-07 Max=4.09D-06 NDo=     1
 LinEq1:  Iter= 13 NonCon=     1 RMS=5.69D-08 Max=3.16D-06 NDo=     1
 LinEq1:  Iter= 14 NonCon=     1 RMS=2.22D-08 Max=8.85D-07 NDo=     1
 LinEq1:  Iter= 15 NonCon=     1 RMS=7.63D-09 Max=3.55D-07 NDo=     1
 LinEq1:  Iter= 16 NonCon=     1 RMS=3.50D-09 Max=1.07D-07 NDo=     1
 LinEq1:  Iter= 17 NonCon=     1 RMS=1.13D-09 Max=4.92D-08 NDo=     1
 LinEq1:  Iter= 18 NonCon=     1 RMS=5.30D-10 Max=3.46D-08 NDo=     1
 LinEq1:  Iter= 19 NonCon=     1 RMS=3.07D-10 Max=2.33D-08 NDo=     1
 LinEq1:  Iter= 20 NonCon=     1 RMS=1.16D-10 Max=5.91D-09 NDo=     1
 LinEq1:  Iter= 21 NonCon=     1 RMS=6.45D-11 Max=2.15D-09 NDo=     1
 LinEq1:  Iter= 22 NonCon=     0 RMS=2.70D-11 Max=7.43D-10 NDo=     1
 Linear equations converged to 1.000D-10 1.000D-09 after    22 iterations.
 PCM Corrected Linear-Response - Non-equilibrium solvation:
 Corrected transition energy               =    3.1858          eV
 Total energy after correction             = -966.632041453     a.u.
 End of Minotr F.D. properties file   721 does not exist.
 End of Minotr F.D. properties file   722 does not exist.
 End of Minotr F.D. properties file   788 does not exist.

 **********************************************************************

            Population analysis using the CI Density.

 **********************************************************************

 Orbital symmetries:
       Occupied  (A) (A) (A) (A) (A) (A) (A) (A) (A) (A) (A) (A)
                 (A) (A) (A) (A) (A) (A) (A) (A) (A) (A) (A) (A)
                 (A) (A) (A) (A) (A) (A) (A) (A) (A) (A) (A) (A)
                 (A) (A) (A) (A) (A) (A) (A) (A) (A) (A) (A) (A)
                 (A) (A) (A) (A) (A) (A) (A) (A) (A) (A) (A) (A)
                 (A) (A) (A) (A) (A) (A) (A) (A) (A) (A) (A) (A)
                 (A)
       Virtual   (A) (A) (A) (A) (A) (A) (A) (A) (A) (A) (A) (A)
                 (A) (A) (A) (A) (A) (A) (A) (A) (A) (A) (A) (A)
                 (A) (A) (A) (A) (A) (A) (A) (A) (A) (A) (A) (A)
                 (A) (A) (A) (A) (A) (A) (A) (A) (A) (A) (A) (A)
                 (A) (A) (A) (A) (A) (A) (A) (A) (A) (A) (A) (A)
                 (A) (A) (A) (A) (A) (A) (A) (A) (A) (A) (A) (A)
                 (A) (A) (A) (A) (A) (A) (A) (A) (A) (A) (A) (A)
                 (A) (A) (A) (A) (A) (A) (A) (A) (A) (A) (A) (A)
                 (A) (A) (A) (A) (A) (A) (A) (A) (A) (A) (A) (A)
                 (A) (A) (A) (A) (A) (A) (A) (A) (A) (A) (A) (A)
                 (A) (A) (A) (A) (A) (A) (A) (A) (A) (A) (A) (A)
                 (A) (A) (A) (A) (A) (A) (A) (A) (A) (A) (A) (A)
                 (A) (A) (A) (A) (A) (A) (A) (A) (A) (A) (A) (A)
                 (A) (A) (A) (A) (A) (A) (A) (A) (A) (A) (A) (A)
                 (A) (A) (A) (A) (A) (A) (A) (A) (A) (A) (A) (A)
                 (A) (A) (A) (A) (A) (A) (A) (A) (A) (A) (A) (A)
                 (A) (A) (A) (A) (A) (A) (A) (A) (A) (A) (A) (A)
                 (A) (A) (A) (A) (A) (A) (A) (A) (A) (A) (A) (A)
                 (A) (A) (A) (A) (A) (A) (A) (A) (A) (A) (A) (A)
                 (A) (A) (A) (A) (A) (A) (A) (A) (A) (A) (A) (A)
                 (A) (A) (A) (A) (A) (A) (A) (A) (A) (A) (A) (A)
                 (A) (A) (A) (A) (A) (A) (A) (A) (A) (A) (A) (A)
                 (A) (A) (A) (A) (A) (A) (A) (A) (A) (A) (A) (A)
                 (A) (A) (A) (A) (A)
 The electronic state is 1-A.
 Alpha  occ. eigenvalues --  -25.20240 -25.20191 -14.79254 -14.79246 -14.77009
 Alpha  occ. eigenvalues --  -10.61790 -10.61145 -10.59728 -10.59725 -10.59342
 Alpha  occ. eigenvalues --  -10.59334 -10.56886 -10.56867 -10.56778 -10.56471
 Alpha  occ. eigenvalues --  -10.56465 -10.55442 -10.55439 -10.55115 -10.55111
 Alpha  occ. eigenvalues --   -7.13764  -1.29262  -1.25748  -1.09829  -1.07895
 Alpha  occ. eigenvalues --   -1.02655  -0.95773  -0.90539  -0.88108  -0.86606
 Alpha  occ. eigenvalues --   -0.84077  -0.81737  -0.81251  -0.74575  -0.70163
 Alpha  occ. eigenvalues --   -0.68880  -0.68697  -0.65775  -0.65598  -0.64866
 Alpha  occ. eigenvalues --   -0.61601  -0.60562  -0.59685  -0.58990  -0.57867
 Alpha  occ. eigenvalues --   -0.57681  -0.54062  -0.52835  -0.51619  -0.51579
 Alpha  occ. eigenvalues --   -0.51038  -0.50693  -0.50004  -0.49280  -0.48812
 Alpha  occ. eigenvalues --   -0.47740  -0.47198  -0.46694  -0.46617  -0.45674
 Alpha  occ. eigenvalues --   -0.45458  -0.44951  -0.44631  -0.43009  -0.41776
 Alpha  occ. eigenvalues --   -0.40478  -0.39625  -0.34996  -0.32384  -0.31947
 Alpha  occ. eigenvalues --   -0.31488  -0.26484  -0.25316
 Alpha virt. eigenvalues --   -0.08126   0.02113   0.03630   0.06676   0.08347
 Alpha virt. eigenvalues --    0.10291   0.11229   0.12874   0.13539   0.13707
 Alpha virt. eigenvalues --    0.14215   0.15117   0.15722   0.16799   0.17635
 Alpha virt. eigenvalues --    0.17967   0.18072   0.18505   0.19991   0.20931
 Alpha virt. eigenvalues --    0.22108   0.22289   0.23491   0.24782   0.24841
 Alpha virt. eigenvalues --    0.26211   0.27792   0.28378   0.30244   0.30512
 Alpha virt. eigenvalues --    0.32282   0.32414   0.33598   0.34502   0.34520
 Alpha virt. eigenvalues --    0.35942   0.36757   0.37865   0.40467   0.40846
 Alpha virt. eigenvalues --    0.41244   0.42163   0.43972   0.44223   0.45148
 Alpha virt. eigenvalues --    0.45242   0.45650   0.46145   0.46536   0.47475
 Alpha virt. eigenvalues --    0.48379   0.49148   0.49928   0.50679   0.51413
 Alpha virt. eigenvalues --    0.52206   0.53227   0.53658   0.53917   0.55976
 Alpha virt. eigenvalues --    0.56083   0.57295   0.57397   0.59371   0.60411
 Alpha virt. eigenvalues --    0.60599   0.60863   0.62212   0.62465   0.62931
 Alpha virt. eigenvalues --    0.64265   0.64462   0.65560   0.68474   0.68987
 Alpha virt. eigenvalues --    0.70355   0.70396   0.70624   0.71340   0.71470
 Alpha virt. eigenvalues --    0.73036   0.73445   0.73596   0.74822   0.75826
 Alpha virt. eigenvalues --    0.76154   0.76452   0.77215   0.77615   0.78212
 Alpha virt. eigenvalues --    0.78746   0.79676   0.80331   0.80419   0.82011
 Alpha virt. eigenvalues --    0.82233   0.83753   0.84873   0.86568   0.87228
 Alpha virt. eigenvalues --    0.87479   0.88809   0.90803   0.91501   0.92027
 Alpha virt. eigenvalues --    0.93494   0.94448   0.96834   0.98312   1.01428
 Alpha virt. eigenvalues --    1.01915   1.02952   1.04275   1.05493   1.09822
 Alpha virt. eigenvalues --    1.10110   1.11534   1.12281   1.13662   1.16034
 Alpha virt. eigenvalues --    1.17978   1.19512   1.23033   1.23863   1.24787
 Alpha virt. eigenvalues --    1.26506   1.26785   1.28174   1.28883   1.29770
 Alpha virt. eigenvalues --    1.30498   1.30710   1.31716   1.32951   1.33495
 Alpha virt. eigenvalues --    1.34379   1.34777   1.36056   1.36279   1.37394
 Alpha virt. eigenvalues --    1.39560   1.40535   1.40664   1.42437   1.42698
 Alpha virt. eigenvalues --    1.44624   1.46445   1.50833   1.52439   1.53060
 Alpha virt. eigenvalues --    1.54460   1.58576   1.59465   1.60642   1.64344
 Alpha virt. eigenvalues --    1.67185   1.67677   1.68481   1.68911   1.70658
 Alpha virt. eigenvalues --    1.70710   1.70908   1.72551   1.74127   1.75378
 Alpha virt. eigenvalues --    1.76229   1.76793   1.77639   1.78455   1.78978
 Alpha virt. eigenvalues --    1.80149   1.80356   1.80720   1.81213   1.82310
 Alpha virt. eigenvalues --    1.83736   1.84073   1.84969   1.87690   1.88270
 Alpha virt. eigenvalues --    1.89439   1.90066   1.90279   1.90826   1.91736
 Alpha virt. eigenvalues --    1.94007   1.95547   1.95868   1.96907   1.97372
 Alpha virt. eigenvalues --    1.98256   1.99290   1.99668   2.00344   2.01878
 Alpha virt. eigenvalues --    2.02415   2.02598   2.05419   2.06311   2.08444
 Alpha virt. eigenvalues --    2.10524   2.12711   2.15896   2.15951   2.17704
 Alpha virt. eigenvalues --    2.17870   2.18137   2.18682   2.20394   2.21589
 Alpha virt. eigenvalues --    2.22428   2.23161   2.24851   2.25512   2.27368
 Alpha virt. eigenvalues --    2.28601   2.29367   2.31711   2.32717   2.34919
 Alpha virt. eigenvalues --    2.35372   2.35963   2.36962   2.37706   2.38930
 Alpha virt. eigenvalues --    2.41005   2.43330   2.48182   2.52156   2.55241
 Alpha virt. eigenvalues --    2.56588   2.58199   2.59416   2.60814   2.64034
 Alpha virt. eigenvalues --    2.65995   2.67560   2.68564   2.68958   2.69908
 Alpha virt. eigenvalues --    2.70886   2.71891   2.72944   2.74251   2.74441
 Alpha virt. eigenvalues --    2.75384   2.75523   2.76024   2.77704   2.81307
 Alpha virt. eigenvalues --    2.85916   2.89199   2.89295   2.90970   2.92224
 Alpha virt. eigenvalues --    2.93650   2.99646   3.02056   3.02896   3.09965
 Alpha virt. eigenvalues --    3.11036   3.18038   3.18464   3.18597   3.20060
 Alpha virt. eigenvalues --    3.21407   3.24308   3.25637   3.26374   3.28374
 Alpha virt. eigenvalues --    3.35002   3.43961   3.47551   3.49188   3.52785
 Alpha virt. eigenvalues --    3.53706   3.56334   3.62402   3.69676   3.82430
 Alpha virt. eigenvalues --    3.83427
          Condensed to atoms (all electrons):
               1          2          3          4          5          6
     1  C    5.257625  -0.036166   0.226281   0.363224   0.018100  -0.146886
     2  C   -0.036166   5.257393   0.226669   0.012969  -0.000416  -0.000299
     3  C    0.226281   0.226669   5.617087  -0.130120   0.022990   0.013723
     4  C    0.363224   0.012969  -0.130120   5.210480   0.328532  -0.011019
     5  C    0.018100  -0.000416   0.022990   0.328532   5.052239   0.346919
     6  C   -0.146886  -0.000299   0.013723  -0.011019   0.346919   4.899319
     7  H    0.012445   0.000004  -0.000471  -0.060036   0.455132  -0.056323
     8  C   -0.000348  -0.147223   0.013810   0.000016   0.000000   0.000127
     9  C    0.013169   0.363024  -0.130411  -0.000105   0.000003   0.000018
    10  C   -0.000421   0.018764   0.022984   0.000003  -0.000000  -0.000001
    11  H    0.000004   0.012431  -0.000471  -0.000000   0.000000   0.000000
    12  N    0.430252  -0.006040  -0.090291  -0.097392  -0.061145   0.418423
    13  N   -0.005917   0.430069  -0.090560  -0.000251  -0.000061  -0.000422
    14  B   -0.047169  -0.046916  -0.012182   0.003074  -0.001619  -0.010562
    15  F   -0.003232  -0.003266   0.001603  -0.000059   0.000006  -0.001332
    16  F   -0.003307  -0.003247   0.001643  -0.000061  -0.000003   0.001399
    17  C   -0.072376  -0.072116   0.370661  -0.012734   0.000675  -0.000244
    18  C    0.009731  -0.024983  -0.075106   0.000113   0.000018  -0.000005
    19  C   -0.024999   0.009916  -0.075252  -0.001718   0.000352  -0.000043
    20  C   -0.000194   0.001982   0.010230  -0.000034  -0.000002   0.000000
    21  H   -0.000154  -0.000592  -0.013833   0.000007  -0.000000  -0.000001
    22  C    0.002001  -0.000220   0.010284  -0.000784  -0.000033   0.000000
    23  H   -0.000393  -0.000119  -0.014100   0.002449   0.000876  -0.000136
    24  C   -0.000080  -0.000063   0.001972  -0.000012   0.000002  -0.000000
    25  H    0.000002  -0.000000  -0.000339   0.000000  -0.000000   0.000000
    26  H    0.000003   0.000001  -0.000341   0.000011  -0.000001   0.000000
    27  H   -0.000523  -0.036984  -0.021392  -0.000000   0.000000  -0.000000
    28  H    0.000030   0.003359  -0.000481  -0.000001   0.000000   0.000009
    29  H   -0.036921  -0.000532  -0.021474   0.452044  -0.063255   0.011736
    30  H    0.003376   0.000031  -0.000478   0.010606  -0.053925   0.426489
    31  N   -0.000000  -0.000000   0.000015   0.000000   0.000000   0.000000
    32  H   -0.000000   0.000000   0.000000   0.000000   0.000000  -0.000000
    33  H    0.000000  -0.000000  -0.000000   0.000000   0.000000  -0.000000
               7          8          9         10         11         12
     1  C    0.012445  -0.000348   0.013169  -0.000421   0.000004   0.430252
     2  C    0.000004  -0.147223   0.363024   0.018764   0.012431  -0.006040
     3  C   -0.000471   0.013810  -0.130411   0.022984  -0.000471  -0.090291
     4  C   -0.060036   0.000016  -0.000105   0.000003  -0.000000  -0.097392
     5  C    0.455132   0.000000   0.000003  -0.000000   0.000000  -0.061145
     6  C   -0.056323   0.000127   0.000018  -0.000001   0.000000   0.418423
     7  H    0.592433   0.000000  -0.000000   0.000000  -0.000000   0.004642
     8  C    0.000000   4.900503  -0.010588   0.345923  -0.056395  -0.000353
     9  C   -0.000000  -0.010588   5.211333   0.327702  -0.059949  -0.000234
    10  C    0.000000   0.345923   0.327702   5.053138   0.455132  -0.000068
    11  H   -0.000000  -0.056395  -0.059949   0.455132   0.592493   0.000002
    12  N    0.004642  -0.000353  -0.000234  -0.000068   0.000002   6.472434
    13  N    0.000002   0.417986  -0.097564  -0.061057   0.004651  -0.054002
    14  B    0.000163  -0.009935   0.003009  -0.001803   0.000159   0.292903
    15  F    0.000001   0.000745  -0.000034  -0.000150   0.000000  -0.036637
    16  F    0.000000  -0.000724  -0.000080   0.000109   0.000001  -0.038613
    17  C    0.000002  -0.000234  -0.013099   0.000698   0.000002   0.004733
    18  C    0.000000  -0.000046  -0.001583   0.000349  -0.000004  -0.000061
    19  C   -0.000005  -0.000006   0.000074   0.000020   0.000000   0.000027
    20  C   -0.000000   0.000000  -0.000743  -0.000034  -0.000000   0.000001
    21  H    0.000000  -0.000141   0.002505   0.000903   0.000006   0.000003
    22  C   -0.000000   0.000000  -0.000027  -0.000002  -0.000000   0.000003
    23  H    0.000005  -0.000001   0.000001  -0.000000   0.000000  -0.000286
    24  C   -0.000000  -0.000000  -0.000015   0.000001  -0.000000  -0.000000
    25  H   -0.000000   0.000000   0.000013  -0.000001  -0.000000  -0.000000
    26  H   -0.000000   0.000000   0.000000  -0.000000  -0.000000  -0.000000
    27  H   -0.000000   0.011723   0.452101  -0.063203  -0.004961  -0.000016
    28  H   -0.000000   0.426270   0.010613  -0.053848  -0.003695   0.000168
    29  H   -0.004951  -0.000000  -0.000000   0.000000  -0.000000   0.005325
    30  H   -0.003699   0.000009  -0.000001   0.000000  -0.000000  -0.033535
    31  N   -0.000000   0.000000   0.000000   0.000000  -0.000000   0.000000
    32  H   -0.000000   0.000000  -0.000000   0.000000   0.000000  -0.000000
    33  H    0.000000   0.000000   0.000000  -0.000000  -0.000000  -0.000000
              13         14         15         16         17         18
     1  C   -0.005917  -0.047169  -0.003232  -0.003307  -0.072376   0.009731
     2  C    0.430069  -0.046916  -0.003266  -0.003247  -0.072116  -0.024983
     3  C   -0.090560  -0.012182   0.001603   0.001643   0.370661  -0.075106
     4  C   -0.000251   0.003074  -0.000059  -0.000061  -0.012734   0.000113
     5  C   -0.000061  -0.001619   0.000006  -0.000003   0.000675   0.000018
     6  C   -0.000422  -0.010562  -0.001332   0.001399  -0.000244  -0.000005
     7  H    0.000002   0.000163   0.000001   0.000000   0.000002   0.000000
     8  C    0.417986  -0.009935   0.000745  -0.000724  -0.000234  -0.000046
     9  C   -0.097564   0.003009  -0.000034  -0.000080  -0.013099  -0.001583
    10  C   -0.061057  -0.001803  -0.000150   0.000109   0.000698   0.000349
    11  H    0.004651   0.000159   0.000000   0.000001   0.000002  -0.000004
    12  N   -0.054002   0.292903  -0.036637  -0.038613   0.004733  -0.000061
    13  N    6.474782   0.292349  -0.039317  -0.036067   0.004685   0.000030
    14  B    0.292349   3.376227   0.459252   0.454680   0.002619   0.000030
    15  F   -0.039317   0.459252   8.898291  -0.027217   0.000004   0.000000
    16  F   -0.036067   0.454680  -0.027217   8.900388   0.000004  -0.000000
    17  C    0.004685   0.002619   0.000004   0.000004   5.545884   0.206052
    18  C    0.000030   0.000030   0.000000  -0.000000   0.206052   5.148554
    19  C   -0.000061   0.000013  -0.000000   0.000000   0.205506   0.062829
    20  C    0.000003  -0.000002  -0.000000   0.000000   0.102401   0.286959
    21  H   -0.000283   0.000011  -0.000000   0.000000  -0.082361   0.463373
    22  C    0.000001  -0.000002   0.000000  -0.000000   0.102630  -0.126229
    23  H    0.000002   0.000013   0.000000  -0.000000  -0.082446   0.013327
    24  C   -0.000000   0.000000   0.000000   0.000000  -0.192552   0.137672
    25  H   -0.000000  -0.000000   0.000000  -0.000000   0.016603  -0.066408
    26  H   -0.000000  -0.000000  -0.000000   0.000000   0.016625  -0.002544
    27  H    0.005336   0.000274   0.000001   0.000001   0.005526   0.002915
    28  H   -0.033476   0.002538   0.000366   0.000535   0.000006   0.000001
    29  H   -0.000016   0.000277   0.000001   0.000001   0.005720  -0.000352
    30  H    0.000167   0.002381   0.000176   0.000828   0.000006  -0.000000
    31  N    0.000000   0.000000   0.000000   0.000000  -0.000341   0.007708
    32  H   -0.000000  -0.000000   0.000000  -0.000000  -0.000019  -0.000492
    33  H   -0.000000  -0.000000  -0.000000   0.000000  -0.000020   0.000483
              19         20         21         22         23         24
     1  C   -0.024999  -0.000194  -0.000154   0.002001  -0.000393  -0.000080
     2  C    0.009916   0.001982  -0.000592  -0.000220  -0.000119  -0.000063
     3  C   -0.075252   0.010230  -0.013833   0.010284  -0.014100   0.001972
     4  C   -0.001718  -0.000034   0.000007  -0.000784   0.002449  -0.000012
     5  C    0.000352  -0.000002  -0.000000  -0.000033   0.000876   0.000002
     6  C   -0.000043   0.000000  -0.000001   0.000000  -0.000136  -0.000000
     7  H   -0.000005  -0.000000   0.000000  -0.000000   0.000005  -0.000000
     8  C   -0.000006   0.000000  -0.000141   0.000000  -0.000001  -0.000000
     9  C    0.000074  -0.000743   0.002505  -0.000027   0.000001  -0.000015
    10  C    0.000020  -0.000034   0.000903  -0.000002  -0.000000   0.000001
    11  H    0.000000  -0.000000   0.000006  -0.000000   0.000000  -0.000000
    12  N    0.000027   0.000001   0.000003   0.000003  -0.000286  -0.000000
    13  N   -0.000061   0.000003  -0.000283   0.000001   0.000002  -0.000000
    14  B    0.000013  -0.000002   0.000011  -0.000002   0.000013   0.000000
    15  F   -0.000000  -0.000000  -0.000000   0.000000   0.000000   0.000000
    16  F    0.000000   0.000000   0.000000  -0.000000  -0.000000   0.000000
    17  C    0.205506   0.102401  -0.082361   0.102630  -0.082446  -0.192552
    18  C    0.062829   0.286959   0.463373  -0.126229   0.013327   0.137672
    19  C    5.149131  -0.126200   0.013266   0.286701   0.463768   0.137764
    20  C   -0.126200   5.342857  -0.058722   0.022499  -0.002059   0.148824
    21  H    0.013266  -0.058722   0.638943  -0.002047  -0.000166   0.015475
    22  C    0.286701   0.022499  -0.002047   5.342939  -0.058973   0.148722
    23  H    0.463768  -0.002059  -0.000166  -0.058973   0.638944   0.015477
    24  C    0.137764   0.148824   0.015475   0.148722   0.015477   5.220174
    25  H   -0.002534   0.464495  -0.012595   0.015398   0.000016  -0.079791
    26  H   -0.066577   0.015423   0.000016   0.464641  -0.012576  -0.079883
    27  H   -0.000328   0.001635  -0.003074   0.000003  -0.000009  -0.000111
    28  H   -0.000000   0.000000  -0.000001   0.000000  -0.000000   0.000000
    29  H    0.002828   0.000006  -0.000010   0.001602  -0.003033  -0.000107
    30  H    0.000001   0.000000  -0.000000   0.000000  -0.000001   0.000000
    31  N    0.007693  -0.112352  -0.000096  -0.112170  -0.000095   0.490520
    32  H    0.000482   0.012308   0.000010  -0.027054  -0.000016  -0.000495
    33  H   -0.000487  -0.027153  -0.000014   0.012317   0.000010  -0.000475
              25         26         27         28         29         30
     1  C    0.000002   0.000003  -0.000523   0.000030  -0.036921   0.003376
     2  C   -0.000000   0.000001  -0.036984   0.003359  -0.000532   0.000031
     3  C   -0.000339  -0.000341  -0.021392  -0.000481  -0.021474  -0.000478
     4  C    0.000000   0.000011  -0.000000  -0.000001   0.452044   0.010606
     5  C   -0.000000  -0.000001   0.000000   0.000000  -0.063255  -0.053925
     6  C    0.000000   0.000000  -0.000000   0.000009   0.011736   0.426489
     7  H   -0.000000  -0.000000  -0.000000  -0.000000  -0.004951  -0.003699
     8  C    0.000000   0.000000   0.011723   0.426270  -0.000000   0.000009
     9  C    0.000013   0.000000   0.452101   0.010613  -0.000000  -0.000001
    10  C   -0.000001  -0.000000  -0.063203  -0.053848   0.000000   0.000000
    11  H   -0.000000  -0.000000  -0.004961  -0.003695  -0.000000  -0.000000
    12  N   -0.000000  -0.000000  -0.000016   0.000168   0.005325  -0.033535
    13  N   -0.000000  -0.000000   0.005336  -0.033476  -0.000016   0.000167
    14  B   -0.000000  -0.000000   0.000274   0.002538   0.000277   0.002381
    15  F    0.000000  -0.000000   0.000001   0.000366   0.000001   0.000176
    16  F   -0.000000   0.000000   0.000001   0.000535   0.000001   0.000828
    17  C    0.016603   0.016625   0.005526   0.000006   0.005720   0.000006
    18  C   -0.066408  -0.002544   0.002915   0.000001  -0.000352  -0.000000
    19  C   -0.002534  -0.066577  -0.000328  -0.000000   0.002828   0.000001
    20  C    0.464495   0.015423   0.001635   0.000000   0.000006   0.000000
    21  H   -0.012595   0.000016  -0.003074  -0.000001  -0.000010  -0.000000
    22  C    0.015398   0.464641   0.000003   0.000000   0.001602   0.000000
    23  H    0.000016  -0.012576  -0.000009  -0.000000  -0.003033  -0.000001
    24  C   -0.079791  -0.079883  -0.000111   0.000000  -0.000107   0.000000
    25  H    0.642325  -0.000172   0.000039  -0.000000  -0.000001  -0.000000
    26  H   -0.000172   0.642467  -0.000001  -0.000000   0.000039  -0.000000
    27  H    0.000039  -0.000001   0.600928  -0.000127  -0.000001  -0.000000
    28  H   -0.000000  -0.000000  -0.000127   0.557290  -0.000000   0.000000
    29  H   -0.000001   0.000039  -0.000001  -0.000000   0.600872  -0.000127
    30  H   -0.000000  -0.000000  -0.000000   0.000000  -0.000127   0.557446
    31  N   -0.010926  -0.010863  -0.000000   0.000000  -0.000000   0.000000
    32  H   -0.000262   0.004758   0.000000  -0.000000  -0.000000  -0.000000
    33  H    0.004828  -0.000271  -0.000000  -0.000000  -0.000000   0.000000
              31         32         33
     1  C   -0.000000  -0.000000   0.000000
     2  C   -0.000000   0.000000  -0.000000
     3  C    0.000015   0.000000  -0.000000
     4  C    0.000000   0.000000   0.000000
     5  C    0.000000   0.000000   0.000000
     6  C    0.000000  -0.000000  -0.000000
     7  H   -0.000000  -0.000000   0.000000
     8  C    0.000000   0.000000   0.000000
     9  C    0.000000  -0.000000   0.000000
    10  C    0.000000   0.000000  -0.000000
    11  H   -0.000000   0.000000  -0.000000
    12  N    0.000000  -0.000000  -0.000000
    13  N    0.000000  -0.000000  -0.000000
    14  B    0.000000  -0.000000  -0.000000
    15  F    0.000000   0.000000  -0.000000
    16  F    0.000000  -0.000000   0.000000
    17  C   -0.000341  -0.000019  -0.000020
    18  C    0.007708  -0.000492   0.000483
    19  C    0.007693   0.000482  -0.000487
    20  C   -0.112352   0.012308  -0.027153
    21  H   -0.000096   0.000010  -0.000014
    22  C   -0.112170  -0.027054   0.012317
    23  H   -0.000095  -0.000016   0.000010
    24  C    0.490520  -0.000495  -0.000475
    25  H   -0.010926  -0.000262   0.004828
    26  H   -0.010863   0.004758  -0.000271
    27  H   -0.000000   0.000000  -0.000000
    28  H    0.000000  -0.000000  -0.000000
    29  H   -0.000000  -0.000000  -0.000000
    30  H    0.000000  -0.000000   0.000000
    31  N    6.133530   0.369971   0.370017
    32  H    0.369971   0.502428  -0.029473
    33  H    0.370017  -0.029473   0.502702
 Mulliken charges:
               1
     1  C    0.042843
     2  C    0.042572
     3  C    0.137351
     4  C   -0.069204
     5  C   -0.045383
     6  C    0.109110
     7  H    0.060654
     8  C    0.108880
     9  C   -0.069133
    10  C   -0.045141
    11  H    0.060595
    12  N   -0.210244
    13  N   -0.211010
    14  B    0.240219
    15  F   -0.249203
    16  F   -0.250272
    17  C   -0.062500
    18  C   -0.042330
    19  C   -0.042160
    20  C   -0.082129
    21  H    0.039572
    22  C   -0.082200
    23  H    0.039521
    24  C    0.036979
    25  H    0.029310
    26  H    0.029244
    27  H    0.050250
    28  H    0.090444
    29  H    0.050330
    30  H    0.090250
    31  N   -0.132609
    32  H    0.167856
    33  H    0.167538
 Sum of Mulliken charges =  -0.00000
 Mulliken charges with hydrogens summed into heavy atoms:
               1
     1  C    0.042843
     2  C    0.042572
     3  C    0.137351
     4  C   -0.018874
     5  C    0.015271
     6  C    0.199360
     8  C    0.199324
     9  C   -0.018882
    10  C    0.015454
    12  N   -0.210244
    13  N   -0.211010
    14  B    0.240219
    15  F   -0.249203
    16  F   -0.250272
    17  C   -0.062500
    18  C   -0.002758
    19  C   -0.002639
    20  C   -0.052819
    22  C   -0.052956
    24  C    0.036979
    31  N    0.202784
 Electronic spatial extent (au):  <R**2>=           6178.1694
 Charge=              0.0000 electrons
 Dipole moment (field-independent basis, Debye):
    X=             -9.9547    Y=             -0.2470    Z=             -0.4310  Tot=              9.9671
 Quadrupole moment (field-independent basis, Debye-Ang):
   XX=            -93.7956   YY=            -95.2798   ZZ=           -125.7886
   XY=              1.6642   XZ=              1.2519   YZ=             -3.6010
 Traceless Quadrupole moment (field-independent basis, Debye-Ang):
   XX=             11.1591   YY=              9.6749   ZZ=            -20.8339
   XY=              1.6642   XZ=              1.2519   YZ=             -3.6010
 Octapole moment (field-independent basis, Debye-Ang**2):
  XXX=           -326.8357  YYY=             -0.2549  ZZZ=             -0.0750  XYY=             45.1262
  XXY=             -9.9311  XXZ=            -11.6696  XZZ=            -12.6144  YZZ=             -0.2710
  YYZ=             -0.8016  XYZ=             25.4049
 Hexadecapole moment (field-independent basis, Debye-Ang**3):
 XXXX=          -3782.4814 YYYY=          -1854.6682 ZZZZ=           -345.5709 XXXY=             65.2325
 XXXZ=             66.3071 YYYX=              2.7665 YYYZ=             32.2798 ZZZX=              2.0610
 ZZZY=            -20.2209 XXYY=          -1086.6618 XXZZ=          -1002.3996 YYZZ=           -451.8642
 XXYZ=            -97.1028 YYXZ=             -0.9773 ZZXY=             -0.0323
 N-N= 1.590167943852D+03 E-N=-5.435448677275D+03  KE= 9.576850098124D+02
 Unable to Open any file for archive entry.
 1\1\GINC-X1001C2S7B0N0\SP\RM062X TD-FC\def2SVP\C15H12B1F2N3\1008721\16
 -Oct-2025\0\\# m062x/def2svp geom=check guess=read TD=(NStates=3, Root
 =2) SCRF=(SMD, solvent=ethanol, CorrectedLR)\\BDP-NH2_ethanol_m062x_m0
 62x_m062x\\0,1\C,0,0.6243845774,-1.2171156418,-0.0666301741\C,0,0.6239
 374979,1.2185309487,0.0343965605\C,0,-0.0956929235,0.0003598123,-0.010
 6120108\C,0,0.1771546202,-2.5493256068,-0.2397382957\C,0,1.3088545243,
 -3.3589169482,-0.2920673412\C,0,2.4184593636,-2.5061846929,-0.17058317
 34\H,0,1.3448633416,-4.4378331114,-0.4197195672\C,0,2.4183632157,2.509
 7178787,0.1008585368\C,0,0.1776696764,2.5535933356,0.1870065421\C,0,1.
 3094652733,3.3643099276,0.2148591214\H,0,1.3458474965,4.4456417765,0.3
 199507726\N,0,2.010239251,-1.2377317345,-0.0385481672\N,0,2.0097522153
 ,1.2388483664,-0.0042305606\B,0,2.9439815186,0.0000805273,0.0072077201
 \F,0,3.7091514325,-0.0071101818,1.168475352\F,0,3.7820256985,0.0075148
 543,-1.1016166387\C,0,-1.5567223194,-0.001726551,-0.0031615748\C,0,-2.
 2942522574,0.8912831313,-0.8091818472\C,0,-2.2809421553,-0.8991624768,
 0.8100781326\C,0,-3.6764651359,0.8832957885,-0.8151520751\H,0,-1.76643
 55524,1.5710644095,-1.4803114159\C,0,-3.6630212122,-0.8970419231,0.832
 5954848\H,0,-1.7419088569,-1.5795519407,1.4716506494\C,0,-4.3991844832
 ,-0.0073318576,0.0141807221\H,0,-4.2251292834,1.5622324208,-1.47087088
 12\H,0,-4.2010718451,-1.5800388142,1.4928859096\H,0,-0.8576181502,2.87
 06064301,0.2857057448\H,0,3.4797473926,2.7567302739,0.1066680519\H,0,-
 0.8589670874,-2.8638136852,-0.3384444306\H,0,3.4797782219,-2.752797685
 3,-0.187534765\N,0,-5.7510711092,0.0034682444,0.0368046062\H,0,-6.2582
 584325,-0.7108043368,0.5440462198\H,0,-6.2670965134,0.5747120625,-0.62
 0486208\\Version=ES64L-G16RevC.01\State=1-A\HF=-966.7491161\RMSD=4.301
 e-09\Dipole=-3.9166993,-0.1042842,-0.1600737\Quadrupole=8.2964129,7.19
 84228,-15.4948357,1.2326517,0.8779531,-2.6747552\PG=C01 [X(C15H12B1F2N
 3)]\\@
 The archive entry for this job was punched.


 MAN IS A SINGULAR CREATURE.  HE HAS A SET OF GIFTS
 WHICH MAKE HIM UNIQUE AMONG THE ANIMALS: SO THAT, 
 UNLIKE THEM, HE IS NOT A FIGURE IN THE LANDSCAPE --
 HE IS A SHAPER OF THE LANDSCAPE.

                       -- JACOB BRONOWSKI
 Job cpu time:       0 days  4 hours 45 minutes 46.2 seconds.
 Elapsed time:       0 days  0 hours  9 minutes  4.2 seconds.
 File lengths (MBytes):  RWF=    961 Int=      0 D2E=      0 Chk=     44 Scr=      1
 Normal termination of Gaussian 16 at Thu Oct 16 16:34:26 2025.
