 Entering Gaussian System, Link 0=g16
 Initial command:
 /home/users/sutd/1008721/g16/l1.exe "/home/users/sutd/1008721/scratch/g16/scratch/Gau-2468825.inp" -scrdir="/home/users/sutd/1008721/scratch/g16/scratch/"
 Entering Link 1 = /home/users/sutd/1008721/g16/l1.exe PID=   2468826.
  
 Copyright (c) 1988-2019, Gaussian, Inc.  All Rights Reserved.
  
 This is part of the Gaussian(R) 16 program.  It is based on
 the Gaussian(R) 09 system (copyright 2009, Gaussian, Inc.),
 the Gaussian(R) 03 system (copyright 2003, Gaussian, Inc.),
 the Gaussian(R) 98 system (copyright 1998, Gaussian, Inc.),
 the Gaussian(R) 94 system (copyright 1995, Gaussian, Inc.),
 the Gaussian 92(TM) system (copyright 1992, Gaussian, Inc.),
 the Gaussian 90(TM) system (copyright 1990, Gaussian, Inc.),
 the Gaussian 88(TM) system (copyright 1988, Gaussian, Inc.),
 the Gaussian 86(TM) system (copyright 1986, Carnegie Mellon
 University), and the Gaussian 82(TM) system (copyright 1983,
 Carnegie Mellon University). Gaussian is a federally registered
 trademark of Gaussian, Inc.
  
 This software contains proprietary and confidential information,
 including trade secrets, belonging to Gaussian, Inc.
  
 This software is provided under written license and may be
 used, copied, transmitted, or stored only in accord with that
 written license.
  
 The following legend is applicable only to US Government
 contracts under FAR:
  
                    RESTRICTED RIGHTS LEGEND
  
 Use, reproduction and disclosure by the US Government is
 subject to restrictions as set forth in subparagraphs (a)
 and (c) of the Commercial Computer Software - Restricted
 Rights clause in FAR 52.227-19.
  
 Gaussian, Inc.
 340 Quinnipiac St., Bldg. 40, Wallingford CT 06492
  
  
 ---------------------------------------------------------------
 Warning -- This program may not be used in any manner that
 competes with the business of Gaussian, Inc. or will provide
 assistance to any competitor of Gaussian, Inc.  The licensee
 of this program is prohibited from giving any competitor of
 Gaussian, Inc. access to this program.  By using this program,
 the user acknowledges that Gaussian, Inc. is engaged in the
 business of creating and licensing software in the field of
 computational chemistry and represents and warrants to the
 licensee that it is not a competitor of Gaussian, Inc. and that
 it will not use this program in any manner prohibited above.
 ---------------------------------------------------------------
  

 Cite this work as:
 Gaussian 16, Revision C.01,
 M. J. Frisch, G. W. Trucks, H. B. Schlegel, G. E. Scuseria, 
 M. A. Robb, J. R. Cheeseman, G. Scalmani, V. Barone, 
 G. A. Petersson, H. Nakatsuji, X. Li, M. Caricato, A. V. Marenich, 
 J. Bloino, B. G. Janesko, R. Gomperts, B. Mennucci, H. P. Hratchian, 
 J. V. Ortiz, A. F. Izmaylov, J. L. Sonnenberg, D. Williams-Young, 
 F. Ding, F. Lipparini, F. Egidi, J. Goings, B. Peng, A. Petrone, 
 T. Henderson, D. Ranasinghe, V. G. Zakrzewski, J. Gao, N. Rega, 
 G. Zheng, W. Liang, M. Hada, M. Ehara, K. Toyota, R. Fukuda, 
 J. Hasegawa, M. Ishida, T. Nakajima, Y. Honda, O. Kitao, H. Nakai, 
 T. Vreven, K. Throssell, J. A. Montgomery, Jr., J. E. Peralta, 
 F. Ogliaro, M. J. Bearpark, J. J. Heyd, E. N. Brothers, K. N. Kudin, 
 V. N. Staroverov, T. A. Keith, R. Kobayashi, J. Normand, 
 K. Raghavachari, A. P. Rendell, J. C. Burant, S. S. Iyengar, 
 J. Tomasi, M. Cossi, J. M. Millam, M. Klene, C. Adamo, R. Cammi, 
 J. W. Ochterski, R. L. Martin, K. Morokuma, O. Farkas, 
 J. B. Foresman, and D. J. Fox, Gaussian, Inc., Wallingford CT, 2019.
 
 ******************************************
 Gaussian 16:  ES64L-G16RevC.01  3-Jul-2019
                10-Oct-2025 
 ******************************************
 %nprocshared=32
 Will use up to   32 processors via shared memory.
 %mem=64GB
 %oldchk=06BDP-NH2_ethanol_m062x_m062x_m062x.chk
 %chk=07BDP-NH2_ethanol_m062x_m062x_m062x.chk
 Copying data from "06BDP-NH2_ethanol_m062x_m062x_m062x.chk" to current chk file "07BDP-NH2_ethanol_m062x_m062x_m062x.chk"
 IOpt=  2 FromEx=T IUOpen= 4 IOptOp= 5 NList=   0 IFRang= 0 IUIn= 4 IUOut= 2.
 ----------------------------------------------------------------------
 # m062x/def2svp geom=check guess=read SCRF=(SMD, solvent=ethanol, NonE
 q=Read)
 ----------------------------------------------------------------------
 1/29=2,38=1,172=1/1;
 2/12=2,40=1/2;
 3/5=43,7=101,11=2,14=-4,25=1,30=1,70=6032201,72=4,74=-55,116=-2/1,2,3;
 4/5=1/1;
 5/5=2,38=6,53=4/2;
 6/7=2,8=2,9=2,10=2,28=1/1;
 99/5=1,9=1/99;
 ---------------------------------
 BDP-NH2_ethanol_m062x_m062x_m062x
 ---------------------------------
 Structure from the checkpoint file:  "07BDP-NH2_ethanol_m062x_m062x_m062x.chk"
 Charge =  0 Multiplicity = 1
 Z-Matrix found in chk file.
 C,0,0.621942,-1.206612,-0.121114
 C,0,0.63919,1.224157,0.014432
 C,0,-0.110022,0.012736,-0.034248
 C,0,0.170737,-2.548141,-0.323101
 C,0,1.299519,-3.352317,-0.385027
 C,0,2.42336,-2.503271,-0.230905
 H,0,1.339936,-4.428672,-0.537343
 C,0,2.465643,2.48884,0.075632
 C,0,0.211887,2.590539,0.082431
 C,0,1.35481,3.372325,0.113027
 H,0,1.415973,4.457272,0.163929
 N,0,2.01691,-1.235332,-0.072766
 N,0,2.037335,1.220958,0.022463
 B,0,2.955782,-0.022095,0.105362
 F,0,3.597464,-0.0689,1.340936
 F,0,3.910109,0.008087,-0.904619
 C,0,-1.578278,0.016807,-0.005856
 C,0,-2.332325,0.892942,-0.810039
 C,0,-2.289989,-0.869548,0.825767
 C,0,-3.719121,0.887323,-0.786989
 H,0,-1.820072,1.572755,-1.494106
 C,0,-3.676307,-0.879409,0.860137
 H,0,-1.739933,-1.551522,1.478031
 C,0,-4.425737,0.00211,0.05352
 H,0,-4.278396,1.568615,-1.431923
 H,0,-4.201057,-1.568522,1.525477
 H,0,-0.820862,2.926567,0.113794
 H,0,3.53016,2.724177,0.098205
 H,0,-0.867484,-2.851383,-0.431289
 H,0,3.483317,-2.757982,-0.238754
 N,0,-5.793212,0.028989,0.1172
 H,0,-6.259241,-0.779109,0.514373
 H,0,-6.288497,0.472406,-0.648335
 Recover connectivity data from disk.
                          Input orientation:                          
 ---------------------------------------------------------------------
 Center     Atomic      Atomic             Coordinates (Angstroms)
 Number     Number       Type             X           Y           Z
 ---------------------------------------------------------------------
      1          6           0        0.621942   -1.206612   -0.121114
      2          6           0        0.639190    1.224157    0.014432
      3          6           0       -0.110022    0.012736   -0.034248
      4          6           0        0.170737   -2.548141   -0.323101
      5          6           0        1.299519   -3.352317   -0.385027
      6          6           0        2.423360   -2.503271   -0.230905
      7          1           0        1.339936   -4.428672   -0.537343
      8          6           0        2.465643    2.488840    0.075632
      9          6           0        0.211887    2.590539    0.082431
     10          6           0        1.354810    3.372325    0.113027
     11          1           0        1.415973    4.457272    0.163929
     12          7           0        2.016910   -1.235332   -0.072766
     13          7           0        2.037335    1.220958    0.022463
     14          5           0        2.955782   -0.022095    0.105362
     15          9           0        3.597464   -0.068900    1.340936
     16          9           0        3.910109    0.008087   -0.904619
     17          6           0       -1.578278    0.016807   -0.005856
     18          6           0       -2.332325    0.892942   -0.810039
     19          6           0       -2.289989   -0.869548    0.825767
     20          6           0       -3.719121    0.887323   -0.786989
     21          1           0       -1.820072    1.572755   -1.494106
     22          6           0       -3.676307   -0.879409    0.860137
     23          1           0       -1.739933   -1.551522    1.478031
     24          6           0       -4.425737    0.002110    0.053520
     25          1           0       -4.278396    1.568615   -1.431923
     26          1           0       -4.201057   -1.568522    1.525477
     27          1           0       -0.820862    2.926567    0.113794
     28          1           0        3.530160    2.724177    0.098205
     29          1           0       -0.867484   -2.851383   -0.431289
     30          1           0        3.483317   -2.757982   -0.238754
     31          7           0       -5.793212    0.028989    0.117200
     32          1           0       -6.259241   -0.779109    0.514373
     33          1           0       -6.288497    0.472406   -0.648335
 ---------------------------------------------------------------------
                    Distance matrix (angstroms):
                    1          2          3          4          5
     1  C    0.000000
     2  C    2.434606   0.000000
     3  C    1.424825   1.425212   0.000000
     4  C    1.429715   3.816230   2.592364   0.000000
     5  C    2.265571   4.641090   3.665165   1.387329   0.000000
     6  C    2.222270   4.139707   3.575890   2.254955   1.416916
     7  H    3.327226   5.722760   4.699105   2.224707   1.087830
     8  C    4.134526   2.222408   3.574523   5.549483   5.974208
     9  C    3.824648   1.433252   2.600444   5.154821   6.059620
    10  C    4.643122   2.266376   3.668005   6.053442   6.743287
    11  H    5.726370   3.328479   4.703385   7.131874   7.829725
    12  N    1.396101   2.820426   2.466373   2.279142   2.256941
    13  N    2.813725   1.398172   2.464581   4.220155   4.650297
    14  B    2.627010   2.632111   3.069179   3.784305   3.751542
    15  F    3.505098   3.490415   3.955155   4.545120   4.363522
    16  F    3.591854   3.608655   4.113274   4.566768   4.286895
    17  C    2.520120   2.524930   1.468536   3.120682   4.447076
    18  C    3.689233   3.101509   2.513015   4.282929   5.602959
    19  C    3.080509   3.690793   2.504058   3.192608   4.529319
    20  C    4.865468   4.444166   3.789079   5.210432   6.582011
    21  H    3.946317   2.906059   2.736625   4.724019   5.934496
    22  C    4.420957   4.874805   3.783416   4.357117   5.694256
    23  H    2.873096   3.937860   2.718548   2.808556   3.994010
    24  C    5.193320   5.210414   4.316620   5.270028   6.650042
    25  H    5.782164   5.137436   4.663646   6.162138   7.511638
    26  H    5.109164   5.788809   4.655071   4.846594   6.090015
    27  H    4.384066   2.244955   3.002935   5.580912   6.645993
    28  H    4.894582   3.258034   4.540967   6.265825   6.490998
    29  H    2.240507   4.367924   2.989075   1.086997   2.224630
    30  H    3.257001   4.900060   4.542113   3.320291   2.267951
    31  N    6.537408   6.543301   5.685231   6.511847   7.873519
    32  H    6.923675   7.200789   6.224219   6.721269   8.035246
    33  H    7.131005   6.999803   6.225910   7.138010   8.501519
                    6          7          8          9         10
     6  C    0.000000
     7  H    2.230444   0.000000
     8  C    5.001692   7.035263   0.000000
     9  C    5.561986   7.136241   2.256060   0.000000
    10  C    5.981866   7.828075   1.419822   1.385063   0.000000
    11  H    7.044138   8.913897   2.232561   2.222871   1.087861
    12  N    1.340850   3.297203   3.754043   4.233141   4.658691
    13  N    3.752745   5.719971   1.339328   2.282895   2.258854
    14  B    2.559840   4.737293   2.558499   3.788844   3.753033
    15  F    3.126558   5.256613   3.069861   4.485374   4.287107
    16  F    2.995202   5.140575   3.033399   4.617377   4.345487
    17  C    4.734400   5.344224   4.740346   3.136333   4.458322
    18  C    5.872495   6.471433   5.133400   3.186119   4.538100
    19  C    5.099144   5.263249   5.870052   4.334067   5.637911
    20  C    7.038141   7.342764   6.446726   4.371460   5.721017
    21  H    6.018005   6.849684   4.655174   2.765901   3.987631
    22  C    6.405719   6.301818   7.048695   5.269100   6.629295
    23  H    4.599924   4.671757   5.998176   4.786854   5.973687
    24  C    7.298490   7.295473   7.326352   5.311154   6.691533
    25  H    7.933236   8.266401   6.971485   4.847704   6.113367
    26  H    6.916757   6.567974   7.937829   6.233317   7.568001
    27  H    6.334582   7.693671   3.315747   1.086494   2.220867
    28  H    5.353460   7.507613   1.090454   3.321000   2.269904
    29  H    3.315266   2.715104   6.315432   5.571666   6.630944
    30  H    1.090160   2.733943   5.353843   6.277905   6.498843
    31  N    8.604974   8.436881   8.617499   6.528703   7.891269
    32  H    8.883453   8.495464   9.327142   7.308666   8.681547
    33  H    9.215495   9.067848   9.012497   6.875718   8.210319
                   11         12         13         14         15
    11  H    0.000000
    12  N    5.729126   0.000000
    13  N    3.298459   2.458220   0.000000
    14  B    4.737000   1.544394   1.547772   0.000000
    15  F    5.160473   2.420179   2.415804   1.393050   0.000000
    16  F    5.211310   2.412939   2.416158   1.389861   2.268522
    17  C    5.358367   3.807585   3.810963   4.535591   5.348785
    18  C    5.263345   4.897853   4.460334   5.444201   6.380770
    19  C    6.522821   4.414809   4.872499   5.362394   5.963937
    20  C    6.325976   6.157746   5.822655   6.795415   7.679508
    21  H    4.641283   4.962660   4.159727   5.283051   6.331050
    22  C    7.409196   5.780113   6.144831   6.729731   7.334565
    23  H    6.913191   4.076618   4.906432   5.125730   5.541188
    24  C    7.347533   6.561624   6.577070   7.381741   8.126145
    25  H    6.581559   7.024265   6.490344   7.564849   8.508782
    26  H    8.349553   6.428725   6.996984   7.458452   7.943541
    27  H    2.710904   5.040750   3.329675   4.791421   5.477253
    28  H    2.734543   4.242272   2.119889   2.805703   3.057808
    29  H    7.680163   3.325641   5.022731   4.786463   5.551464
    30  H    7.516379   2.120463   4.241587   2.807452   3.120835
    31  N    8.460746   7.914076   7.921315   8.749151   9.470581
    32  H    9.297925   8.309485   8.548416   9.255107   9.916765
    33  H    8.711934   8.498672   8.386285   9.288126  10.098635
                   16         17         18         19         20
    16  F    0.000000
    17  C    5.561496   0.000000
    18  C    6.305545   1.408158   0.000000
    19  C    6.496591   1.408458   2.405000   0.000000
    20  C    7.680628   2.439503   1.386999   2.780287   0.000000
    21  H    5.969142   2.166639   1.092015   3.401099   2.139210
    22  C    7.839370   2.440261   2.781547   1.386779   2.415823
    23  H    6.327114   2.165112   3.400235   1.092290   3.872398
    24  C    8.390733   2.848116   2.433452   2.432606   1.410448
    25  H    8.352539   3.425261   2.151852   3.872411   1.092194
    26  H    8.612902   3.425962   3.873706   2.151822   3.407482
    27  H    5.651263   3.009103   2.696965   4.132279   3.656478
    28  H    2.920130   5.782458   6.208628   6.878833   7.530583
    29  H    5.588023   2.985420   4.038463   2.744336   4.715536
    30  H    2.876919   5.776975   6.890378   6.166883   8.090978
    31  N    9.756997   4.216748   3.685638   3.685378   2.419948
    32  H   10.298004   4.776561   4.468836   3.982475   3.304958
    33  H   10.212386   4.775616   3.981745   4.467872   2.606353
                   21         22         23         24         25
    21  H    0.000000
    22  C    3.873135   0.000000
    23  H    4.312902   2.140811   0.000000
    24  C    3.413438   1.410444   3.414169   0.000000
    25  H    2.459114   3.407179   4.964563   2.163836   0.000000
    26  H    4.965339   1.092207   2.461640   2.164260   4.312056
    27  H    2.327353   4.816228   4.770651   4.642328   4.023409
    28  H    5.699667   8.093179   6.925273   8.408801   8.040532
    29  H    4.648656   3.666872   2.469070   4.586788   5.672034
    30  H    6.961115   7.483102   5.628964   8.381925   8.965896
    31  N    4.556903   2.420419   4.558393   1.369221   2.657988
    32  H    5.410312   2.607904   4.685019   2.045587   3.636430
    33  H    4.678987   3.305515   5.413608   2.045398   2.419957
                   26         27         28         29         30
    26  H    0.000000
    27  H    5.798654   0.000000
    28  H    8.957460   4.355754   0.000000
    29  H    4.072760   5.803791   7.120850   0.000000
    30  H    7.973514   7.138932   5.492705   4.356060   0.000000
    31  N    2.658993   5.755018   9.705136   5.732380   9.692673
    32  H    2.425206   6.593062  10.405699   5.853173   9.969984
    33  H    3.639815   6.041422  10.101179   6.362552  10.300073
                   31         32         33
    31  N    0.000000
    32  H    1.013880   0.000000
    33  H    1.013888   1.708519   0.000000
 Stoichiometry    C15H12BF2N3
 Framework group  C1[X(C15H12BF2N3)]
 Deg. of freedom    93
 Full point group                 C1      NOp   1
 Largest Abelian subgroup         C1      NOp   1
 Largest concise Abelian subgroup C1      NOp   1
                         Standard orientation:                         
 ---------------------------------------------------------------------
 Center     Atomic      Atomic             Coordinates (Angstroms)
 Number     Number       Type             X           Y           Z
 ---------------------------------------------------------------------
      1          6           0        0.621942   -1.206612   -0.121114
      2          6           0        0.639190    1.224157    0.014432
      3          6           0       -0.110022    0.012736   -0.034248
      4          6           0        0.170737   -2.548141   -0.323101
      5          6           0        1.299519   -3.352317   -0.385027
      6          6           0        2.423360   -2.503271   -0.230905
      7          1           0        1.339936   -4.428672   -0.537343
      8          6           0        2.465643    2.488840    0.075632
      9          6           0        0.211887    2.590539    0.082431
     10          6           0        1.354810    3.372325    0.113027
     11          1           0        1.415973    4.457272    0.163929
     12          7           0        2.016910   -1.235332   -0.072766
     13          7           0        2.037335    1.220958    0.022463
     14          5           0        2.955782   -0.022095    0.105362
     15          9           0        3.597464   -0.068900    1.340936
     16          9           0        3.910109    0.008087   -0.904619
     17          6           0       -1.578278    0.016807   -0.005856
     18          6           0       -2.332325    0.892942   -0.810039
     19          6           0       -2.289989   -0.869548    0.825767
     20          6           0       -3.719121    0.887323   -0.786989
     21          1           0       -1.820072    1.572755   -1.494106
     22          6           0       -3.676307   -0.879409    0.860137
     23          1           0       -1.739933   -1.551522    1.478031
     24          6           0       -4.425737    0.002110    0.053520
     25          1           0       -4.278396    1.568615   -1.431923
     26          1           0       -4.201057   -1.568522    1.525477
     27          1           0       -0.820862    2.926567    0.113794
     28          1           0        3.530160    2.724177    0.098205
     29          1           0       -0.867484   -2.851383   -0.431289
     30          1           0        3.483317   -2.757982   -0.238754
     31          7           0       -5.793212    0.028989    0.117200
     32          1           0       -6.259241   -0.779109    0.514373
     33          1           0       -6.288497    0.472406   -0.648335
 ---------------------------------------------------------------------
 Rotational constants (GHZ):           0.5783954           0.2122168           0.1650685
 Standard basis: def2SVP (5D, 7F)
 There are   375 symmetry adapted cartesian basis functions of A   symmetry.
 There are   354 symmetry adapted basis functions of A   symmetry.
   354 basis functions,   609 primitive gaussians,   375 cartesian basis functions
    73 alpha electrons       73 beta electrons
       nuclear repulsion energy      1584.4555834972 Hartrees.
 NAtoms=   33 NActive=   33 NUniq=   33 SFac= 1.00D+00 NAtFMM=   60 NAOKFM=F Big=F
 Integral buffers will be    131072 words long.
 Raffenetti 2 integral format.
 Two-electron integral symmetry is turned on.
 ------------------------------------------------------------------------------
 Polarizable Continuum Model (PCM)
 =================================
 Model                : PCM.
 Atomic radii         : SMD-Coulomb.
 Polarization charges : Total charges.
 Charge compensation  : None.
 Solution method      : On-the-fly selection.
 Cavity type          : VdW (van der Waals Surface) (Alpha=1.000).
 Cavity algorithm     : GePol (No added spheres)
                        Default sphere list used, NSphG=   33.
                        Lebedev-Laikov grids with approx.  5.0 points / Ang**2.
                        Smoothing algorithm: York/Karplus (Gamma=1.0000).
                        Polarization charges: spherical gaussians, with
                                              point-specific exponents (IZeta= 3).
                        Self-potential: point-specific (ISelfS= 7).
                        Self-field    : sphere-specific E.n sum rule (ISelfD= 2).
 Solvent              : Ethanol, Eps=  24.852000 Eps(inf)=   1.852593
 ------------------------------------------------------------------------------
 ------------------------------------------------------------------------------
 Atomic radii for non-electrostatic terms: SMD-CDS.
 ------------------------------------------------------------------------------
 Nuclear repulsion after PCM non-electrostatic terms =     1584.4548904080 Hartrees.
 One-electron integrals computed using PRISM.
   1 Symmetry operations used in ECPInt.
 ECPInt:  NShTT=   13203 NPrTT=   49137 LenC2=   11953 LenP2D=   30956.
 LDataN:  DoStor=T MaxTD1= 4 Len=   56
 NBasis=   354 RedAO= T EigKep=  2.57D-04  NBF=   354
 NBsUse=   354 1.00D-06 EigRej= -1.00D+00 NBFU=   354
 Initial guess from the checkpoint file:  "07BDP-NH2_ethanol_m062x_m062x_m062x.chk"
 B after Tr=    -0.000000    0.000000    0.000000
         Rot=    1.000000   -0.000000   -0.000000    0.000000 Ang=   0.00 deg.
 Requested convergence on RMS density matrix=1.00D-08 within 128 cycles.
 Requested convergence on MAX density matrix=1.00D-06.
 Requested convergence on             energy=1.00D-06.
 No special actions if energy rises.
 Inv3:  Mode=1 IEnd=    19783872.
 Iteration    1 A*A^-1 deviation from unit magnitude is 3.77D-15 for   2542.
 Iteration    1 A*A^-1 deviation from orthogonality  is 2.21D-15 for   1603   1129.
 Iteration    1 A^-1*A deviation from unit magnitude is 3.77D-15 for   2542.
 Iteration    1 A^-1*A deviation from orthogonality  is 1.80D-15 for   1710    344.
 NEqPCM:  Using non-equilibrium solvation (IEInf=1, Eps=  24.8520, EpsInf=   1.8526)
 Inv3:  Mode=1 IEnd=    19783872.
 Iteration    1 A*A^-1 deviation from unit magnitude is 4.00D-15 for   2547.
 Iteration    1 A*A^-1 deviation from orthogonality  is 2.08D-15 for    990    238.
 Iteration    1 A^-1*A deviation from unit magnitude is 4.00D-15 for   2547.
 Iteration    1 A^-1*A deviation from orthogonality  is 1.64D-15 for   1581   1018.
 Error on total polarization charges =  0.02253
 SCF Done:  E(RM062X) =  -966.746649624     A.U. after   11 cycles
            NFock= 11  Conv=0.46D-08     -V/T= 2.0099
 SMD-CDS (non-electrostatic) energy       (kcal/mol) =      -0.43
 (included in total energy above)

 **********************************************************************

            Population analysis using the SCF Density.

 **********************************************************************

 Orbital symmetries:
       Occupied  (A) (A) (A) (A) (A) (A) (A) (A) (A) (A) (A) (A)
                 (A) (A) (A) (A) (A) (A) (A) (A) (A) (A) (A) (A)
                 (A) (A) (A) (A) (A) (A) (A) (A) (A) (A) (A) (A)
                 (A) (A) (A) (A) (A) (A) (A) (A) (A) (A) (A) (A)
                 (A) (A) (A) (A) (A) (A) (A) (A) (A) (A) (A) (A)
                 (A) (A) (A) (A) (A) (A) (A) (A) (A) (A) (A) (A)
                 (A)
       Virtual   (A) (A) (A) (A) (A) (A) (A) (A) (A) (A) (A) (A)
                 (A) (A) (A) (A) (A) (A) (A) (A) (A) (A) (A) (A)
                 (A) (A) (A) (A) (A) (A) (A) (A) (A) (A) (A) (A)
                 (A) (A) (A) (A) (A) (A) (A) (A) (A) (A) (A) (A)
                 (A) (A) (A) (A) (A) (A) (A) (A) (A) (A) (A) (A)
                 (A) (A) (A) (A) (A) (A) (A) (A) (A) (A) (A) (A)
                 (A) (A) (A) (A) (A) (A) (A) (A) (A) (A) (A) (A)
                 (A) (A) (A) (A) (A) (A) (A) (A) (A) (A) (A) (A)
                 (A) (A) (A) (A) (A) (A) (A) (A) (A) (A) (A) (A)
                 (A) (A) (A) (A) (A) (A) (A) (A) (A) (A) (A) (A)
                 (A) (A) (A) (A) (A) (A) (A) (A) (A) (A) (A) (A)
                 (A) (A) (A) (A) (A) (A) (A) (A) (A) (A) (A) (A)
                 (A) (A) (A) (A) (A) (A) (A) (A) (A) (A) (A) (A)
                 (A) (A) (A) (A) (A) (A) (A) (A) (A) (A) (A) (A)
                 (A) (A) (A) (A) (A) (A) (A) (A) (A) (A) (A) (A)
                 (A) (A) (A) (A) (A) (A) (A) (A) (A) (A) (A) (A)
                 (A) (A) (A) (A) (A) (A) (A) (A) (A) (A) (A) (A)
                 (A) (A) (A) (A) (A) (A) (A) (A) (A) (A) (A) (A)
                 (A) (A) (A) (A) (A) (A) (A) (A) (A) (A) (A) (A)
                 (A) (A) (A) (A) (A) (A) (A) (A) (A) (A) (A) (A)
                 (A) (A) (A) (A) (A) (A) (A) (A) (A) (A) (A) (A)
                 (A) (A) (A) (A) (A) (A) (A) (A) (A) (A) (A) (A)
                 (A) (A) (A) (A) (A) (A) (A) (A) (A) (A) (A) (A)
                 (A) (A) (A) (A) (A)
 The electronic state is 1-A.
 Alpha  occ. eigenvalues --  -25.20121 -25.19980 -14.79386 -14.79371 -14.76931
 Alpha  occ. eigenvalues --  -10.62086 -10.61157 -10.59943 -10.59907 -10.59654
 Alpha  occ. eigenvalues --  -10.59616 -10.57335 -10.57187 -10.57174 -10.56623
 Alpha  occ. eigenvalues --  -10.56620 -10.55865 -10.55848 -10.55153 -10.55147
 Alpha  occ. eigenvalues --   -7.13587  -1.29083  -1.25532  -1.09424  -1.07455
 Alpha  occ. eigenvalues --   -1.02507  -0.95872  -0.90448  -0.87993  -0.86517
 Alpha  occ. eigenvalues --   -0.84276  -0.82005  -0.80770  -0.74504  -0.70341
 Alpha  occ. eigenvalues --   -0.68868  -0.68521  -0.65761  -0.65482  -0.64697
 Alpha  occ. eigenvalues --   -0.61209  -0.60545  -0.59577  -0.58734  -0.57804
 Alpha  occ. eigenvalues --   -0.57464  -0.53958  -0.52735  -0.51662  -0.51452
 Alpha  occ. eigenvalues --   -0.50847  -0.50609  -0.50047  -0.49387  -0.48909
 Alpha  occ. eigenvalues --   -0.47648  -0.47316  -0.46608  -0.46368  -0.45610
 Alpha  occ. eigenvalues --   -0.45425  -0.44964  -0.44232  -0.43167  -0.41656
 Alpha  occ. eigenvalues --   -0.40721  -0.39745  -0.35014  -0.32430  -0.32145
 Alpha  occ. eigenvalues --   -0.31566  -0.26126  -0.25967
 Alpha virt. eigenvalues --   -0.08182   0.01638   0.03076   0.06506   0.08317
 Alpha virt. eigenvalues --    0.10145   0.10953   0.12712   0.13360   0.13755
 Alpha virt. eigenvalues --    0.14329   0.14555   0.15879   0.16775   0.17577
 Alpha virt. eigenvalues --    0.17819   0.18198   0.18582   0.19674   0.20633
 Alpha virt. eigenvalues --    0.21855   0.22126   0.23638   0.24558   0.24649
 Alpha virt. eigenvalues --    0.26366   0.27610   0.28014   0.29939   0.30548
 Alpha virt. eigenvalues --    0.32014   0.32202   0.33257   0.34398   0.34626
 Alpha virt. eigenvalues --    0.35793   0.36314   0.37499   0.40073   0.40812
 Alpha virt. eigenvalues --    0.41048   0.41811   0.43663   0.44288   0.44838
 Alpha virt. eigenvalues --    0.45119   0.45683   0.46225   0.46636   0.47578
 Alpha virt. eigenvalues --    0.48136   0.48822   0.49473   0.50773   0.51001
 Alpha virt. eigenvalues --    0.51693   0.53172   0.53489   0.53793   0.55594
 Alpha virt. eigenvalues --    0.56157   0.57151   0.57166   0.59045   0.59852
 Alpha virt. eigenvalues --    0.60562   0.61667   0.61968   0.62426   0.62896
 Alpha virt. eigenvalues --    0.64071   0.64465   0.65518   0.68202   0.68797
 Alpha virt. eigenvalues --    0.70052   0.70138   0.70318   0.71188   0.71516
 Alpha virt. eigenvalues --    0.72604   0.73081   0.73383   0.74487   0.75592
 Alpha virt. eigenvalues --    0.75840   0.76150   0.76944   0.77241   0.77910
 Alpha virt. eigenvalues --    0.78406   0.79061   0.79814   0.79928   0.81441
 Alpha virt. eigenvalues --    0.81767   0.83769   0.84305   0.86103   0.86735
 Alpha virt. eigenvalues --    0.87019   0.88566   0.89943   0.90659   0.91741
 Alpha virt. eigenvalues --    0.94214   0.94337   0.97015   0.97727   1.01348
 Alpha virt. eigenvalues --    1.01670   1.02738   1.04304   1.04617   1.09316
 Alpha virt. eigenvalues --    1.09778   1.10697   1.11645   1.12167   1.13765
 Alpha virt. eigenvalues --    1.15939   1.18139   1.19751   1.23123   1.24399
 Alpha virt. eigenvalues --    1.25734   1.26492   1.28169   1.28731   1.29810
 Alpha virt. eigenvalues --    1.30156   1.30437   1.31359   1.32496   1.32951
 Alpha virt. eigenvalues --    1.34369   1.35214   1.35334   1.35802   1.37257
 Alpha virt. eigenvalues --    1.38806   1.39748   1.40100   1.42221   1.43424
 Alpha virt. eigenvalues --    1.44663   1.45910   1.52022   1.53188   1.54550
 Alpha virt. eigenvalues --    1.55664   1.59323   1.59734   1.59975   1.64463
 Alpha virt. eigenvalues --    1.67095   1.67565   1.68220   1.69088   1.70452
 Alpha virt. eigenvalues --    1.71122   1.71654   1.72768   1.73529   1.74616
 Alpha virt. eigenvalues --    1.75204   1.76482   1.76740   1.78282   1.78924
 Alpha virt. eigenvalues --    1.79596   1.79898   1.80283   1.81138   1.81945
 Alpha virt. eigenvalues --    1.83261   1.83629   1.84066   1.86841   1.87775
 Alpha virt. eigenvalues --    1.89536   1.89695   1.89942   1.90798   1.91442
 Alpha virt. eigenvalues --    1.93780   1.95163   1.96038   1.96815   1.97265
 Alpha virt. eigenvalues --    1.97609   1.98755   1.99027   2.00176   2.01378
 Alpha virt. eigenvalues --    2.01945   2.02179   2.05429   2.06076   2.07517
 Alpha virt. eigenvalues --    2.09955   2.11958   2.14805   2.15520   2.16023
 Alpha virt. eigenvalues --    2.16919   2.17498   2.18106   2.19670   2.20273
 Alpha virt. eigenvalues --    2.21614   2.22240   2.22612   2.25112   2.28346
 Alpha virt. eigenvalues --    2.28433   2.29664   2.30238   2.33371   2.34527
 Alpha virt. eigenvalues --    2.35211   2.35404   2.36279   2.36937   2.37519
 Alpha virt. eigenvalues --    2.39711   2.40869   2.48292   2.51487   2.54429
 Alpha virt. eigenvalues --    2.56408   2.57455   2.58851   2.60085   2.63431
 Alpha virt. eigenvalues --    2.64991   2.66427   2.67666   2.67902   2.68573
 Alpha virt. eigenvalues --    2.69901   2.71089   2.72590   2.73320   2.74525
 Alpha virt. eigenvalues --    2.74772   2.75009   2.75680   2.80529   2.83087
 Alpha virt. eigenvalues --    2.86991   2.88539   2.89368   2.90177   2.93140
 Alpha virt. eigenvalues --    2.95964   2.99111   3.01226   3.01591   3.07131
 Alpha virt. eigenvalues --    3.10112   3.18133   3.18475   3.18729   3.20030
 Alpha virt. eigenvalues --    3.20849   3.22665   3.25345   3.25916   3.26885
 Alpha virt. eigenvalues --    3.33574   3.42370   3.46741   3.47519   3.51561
 Alpha virt. eigenvalues --    3.52446   3.53865   3.61681   3.69898   3.82591
 Alpha virt. eigenvalues --    3.83342
          Condensed to atoms (all electrons):
               1          2          3          4          5          6
     1  C    5.247307  -0.033459   0.288982   0.375065   0.003883  -0.152563
     2  C   -0.033459   5.242991   0.293434   0.011084  -0.000324   0.000573
     3  C    0.288982   0.293434   5.356867  -0.106864   0.020072   0.009822
     4  C    0.375065   0.011084  -0.106864   5.118204   0.352962  -0.001465
     5  C    0.003883  -0.000324   0.020072   0.352962   5.051417   0.366225
     6  C   -0.152563   0.000573   0.009822  -0.001465   0.366225   4.864082
     7  H    0.012286   0.000004  -0.000461  -0.061366   0.456036  -0.055597
     8  C    0.000411  -0.153417   0.010039   0.000030  -0.000003   0.000001
     9  C    0.011474   0.371817  -0.106794  -0.000134   0.000003   0.000034
    10  C   -0.000328   0.005543   0.019937   0.000005  -0.000000  -0.000005
    11  H    0.000004   0.012245  -0.000461  -0.000000   0.000000   0.000000
    12  N    0.442169  -0.008109  -0.076008  -0.099452  -0.059296   0.436820
    13  N   -0.008190   0.441726  -0.076595  -0.000308  -0.000040   0.000199
    14  B   -0.047055  -0.046139  -0.007512   0.002436  -0.001016  -0.008245
    15  F   -0.002949  -0.002888   0.001351  -0.000024  -0.000128  -0.002389
    16  F   -0.003074  -0.003013   0.001463  -0.000080   0.000191   0.001274
    17  C   -0.075227  -0.075822   0.364754  -0.012587   0.000586  -0.000216
    18  C    0.005939  -0.019747  -0.069187  -0.000118   0.000022   0.000004
    19  C   -0.021287   0.006839  -0.068351  -0.000020   0.000202  -0.000044
    20  C   -0.000138   0.001866   0.010320  -0.000023  -0.000002   0.000000
    21  H   -0.000459  -0.000759  -0.011439  -0.000031   0.000001   0.000001
    22  C    0.001947  -0.000210   0.010472  -0.000599  -0.000030  -0.000001
    23  H   -0.000667  -0.000166  -0.012480   0.002084   0.000700  -0.000100
    24  C   -0.000060  -0.000017   0.001297  -0.000004   0.000001  -0.000000
    25  H    0.000002  -0.000006  -0.000289  -0.000000  -0.000000   0.000000
    26  H   -0.000001  -0.000001  -0.000282  -0.000012  -0.000001   0.000000
    27  H   -0.000348  -0.037825  -0.018622   0.000000   0.000000  -0.000000
    28  H    0.000038   0.003516  -0.000451  -0.000000   0.000000   0.000008
    29  H   -0.037465  -0.000394  -0.019119   0.450314  -0.062235   0.011472
    30  H    0.003498   0.000039  -0.000447   0.010218  -0.052719   0.426960
    31  N   -0.000000  -0.000000   0.000014   0.000000   0.000000   0.000000
    32  H   -0.000000   0.000000  -0.000000   0.000000   0.000000  -0.000000
    33  H   -0.000000   0.000000  -0.000000   0.000000   0.000000  -0.000000
               7          8          9         10         11         12
     1  C    0.012286   0.000411   0.011474  -0.000328   0.000004   0.442169
     2  C    0.000004  -0.153417   0.371817   0.005543   0.012245  -0.008109
     3  C   -0.000461   0.010039  -0.106794   0.019937  -0.000461  -0.076008
     4  C   -0.061366   0.000030  -0.000134   0.000005  -0.000000  -0.099452
     5  C    0.456036  -0.000003   0.000003  -0.000000   0.000000  -0.059296
     6  C   -0.055597   0.000001   0.000034  -0.000005   0.000000   0.436820
     7  H    0.598442   0.000000  -0.000000   0.000000  -0.000000   0.004669
     8  C    0.000000   4.861902  -0.000286   0.362771  -0.055420   0.000300
     9  C   -0.000000  -0.000286   5.114630   0.353851  -0.061068  -0.000272
    10  C    0.000000   0.362771   0.353851   5.049058   0.455895  -0.000054
    11  H   -0.000000  -0.055420  -0.061068   0.455895   0.597535   0.000002
    12  N    0.004669   0.000300  -0.000272  -0.000054   0.000002   6.427529
    13  N    0.000002   0.438220  -0.098691  -0.058940   0.004647  -0.060190
    14  B    0.000178  -0.006856   0.002313  -0.001299   0.000169   0.290712
    15  F    0.000001  -0.001605   0.000003  -0.000242   0.000001  -0.036214
    16  F    0.000000   0.000418  -0.000094   0.000235   0.000001  -0.036430
    17  C    0.000002  -0.000193  -0.012977   0.000662   0.000003   0.004210
    18  C    0.000000  -0.000051  -0.000281   0.000326  -0.000004  -0.000081
    19  C   -0.000005   0.000001  -0.000315   0.000029   0.000000   0.000041
    20  C   -0.000000   0.000000  -0.000370  -0.000036  -0.000000   0.000001
    21  H    0.000000  -0.000122   0.001515   0.000910   0.000007  -0.000001
    22  C   -0.000000   0.000000   0.000002  -0.000002  -0.000000   0.000003
    23  H    0.000004   0.000001  -0.000047   0.000001   0.000000  -0.000292
    24  C   -0.000000  -0.000000  -0.000015   0.000001   0.000000  -0.000000
    25  H   -0.000000   0.000000   0.000001  -0.000001  -0.000000  -0.000000
    26  H   -0.000000   0.000000   0.000000   0.000000  -0.000000  -0.000000
    27  H   -0.000000   0.011457   0.450574  -0.061884  -0.005123  -0.000015
    28  H   -0.000000   0.426074   0.010173  -0.052141  -0.003612   0.000168
    29  H   -0.005018  -0.000000   0.000001   0.000000  -0.000000   0.005006
    30  H   -0.003645   0.000008  -0.000000   0.000000  -0.000000  -0.033127
    31  N   -0.000000   0.000000   0.000000   0.000000  -0.000000   0.000000
    32  H   -0.000000   0.000000  -0.000000   0.000000   0.000000  -0.000000
    33  H   -0.000000   0.000000  -0.000000  -0.000000  -0.000000  -0.000000
              13         14         15         16         17         18
     1  C   -0.008190  -0.047055  -0.002949  -0.003074  -0.075227   0.005939
     2  C    0.441726  -0.046139  -0.002888  -0.003013  -0.075822  -0.019747
     3  C   -0.076595  -0.007512   0.001351   0.001463   0.364754  -0.069187
     4  C   -0.000308   0.002436  -0.000024  -0.000080  -0.012587  -0.000118
     5  C   -0.000040  -0.001016  -0.000128   0.000191   0.000586   0.000022
     6  C    0.000199  -0.008245  -0.002389   0.001274  -0.000216   0.000004
     7  H    0.000002   0.000178   0.000001   0.000000   0.000002   0.000000
     8  C    0.438220  -0.006856  -0.001605   0.000418  -0.000193  -0.000051
     9  C   -0.098691   0.002313   0.000003  -0.000094  -0.012977  -0.000281
    10  C   -0.058940  -0.001299  -0.000242   0.000235   0.000662   0.000326
    11  H    0.004647   0.000169   0.000001   0.000001   0.000003  -0.000004
    12  N   -0.060190   0.290712  -0.036214  -0.036430   0.004210  -0.000081
    13  N    6.433285   0.287437  -0.037559  -0.035573   0.003912   0.000061
    14  B    0.287437   3.369644   0.466833   0.449660   0.002604   0.000054
    15  F   -0.037559   0.466833   8.891094  -0.027401   0.000006   0.000000
    16  F   -0.035573   0.449660  -0.027401   8.902202   0.000004   0.000000
    17  C    0.003912   0.002604   0.000006   0.000004   5.580417   0.196713
    18  C    0.000061   0.000054   0.000000   0.000000   0.196713   5.127946
    19  C   -0.000069  -0.000008  -0.000000  -0.000000   0.196293   0.077946
    20  C    0.000004  -0.000002  -0.000000   0.000000   0.103513   0.285139
    21  H   -0.000221   0.000012  -0.000000   0.000000  -0.080776   0.462485
    22  C    0.000001  -0.000001   0.000000  -0.000000   0.105132  -0.133135
    23  H   -0.000001   0.000023   0.000001  -0.000000  -0.081112   0.013815
    24  C   -0.000000   0.000000   0.000000   0.000000  -0.194849   0.142366
    25  H   -0.000000  -0.000000   0.000000  -0.000000   0.016457  -0.065512
    26  H   -0.000000  -0.000000  -0.000000   0.000000   0.016545  -0.002529
    27  H    0.004920   0.000243   0.000001   0.000001   0.003777   0.002636
    28  H   -0.032926   0.001973  -0.000118   0.001286   0.000004   0.000000
    29  H   -0.000016   0.000260   0.000001   0.000001   0.004761  -0.000522
    30  H    0.000165   0.001640  -0.000167   0.001526   0.000004  -0.000000
    31  N    0.000000   0.000000   0.000000   0.000000  -0.000393   0.007525
    32  H   -0.000000  -0.000000   0.000000  -0.000000  -0.000012  -0.000505
    33  H   -0.000000  -0.000000  -0.000000   0.000000  -0.000012   0.000470
              19         20         21         22         23         24
     1  C   -0.021287  -0.000138  -0.000459   0.001947  -0.000667  -0.000060
     2  C    0.006839   0.001866  -0.000759  -0.000210  -0.000166  -0.000017
     3  C   -0.068351   0.010320  -0.011439   0.010472  -0.012480   0.001297
     4  C   -0.000020  -0.000023  -0.000031  -0.000599   0.002084  -0.000004
     5  C    0.000202  -0.000002   0.000001  -0.000030   0.000700   0.000001
     6  C   -0.000044   0.000000   0.000001  -0.000001  -0.000100  -0.000000
     7  H   -0.000005  -0.000000   0.000000  -0.000000   0.000004  -0.000000
     8  C    0.000001   0.000000  -0.000122   0.000000   0.000001  -0.000000
     9  C   -0.000315  -0.000370   0.001515   0.000002  -0.000047  -0.000015
    10  C    0.000029  -0.000036   0.000910  -0.000002   0.000001   0.000001
    11  H    0.000000  -0.000000   0.000007  -0.000000   0.000000   0.000000
    12  N    0.000041   0.000001  -0.000001   0.000003  -0.000292  -0.000000
    13  N   -0.000069   0.000004  -0.000221   0.000001  -0.000001  -0.000000
    14  B   -0.000008  -0.000002   0.000012  -0.000001   0.000023   0.000000
    15  F   -0.000000  -0.000000  -0.000000   0.000000   0.000001   0.000000
    16  F   -0.000000   0.000000   0.000000  -0.000000  -0.000000   0.000000
    17  C    0.196293   0.103513  -0.080776   0.105132  -0.081112  -0.194849
    18  C    0.077946   0.285139   0.462485  -0.133135   0.013815   0.142366
    19  C    5.127391  -0.132818   0.013521   0.284040   0.464884   0.143391
    20  C   -0.132818   5.314084  -0.056651   0.042086  -0.002189   0.150866
    21  H    0.013521  -0.056651   0.625171  -0.002111  -0.000145   0.015236
    22  C    0.284040   0.042086  -0.002111   5.316924  -0.058255   0.149362
    23  H    0.464884  -0.002189  -0.000145  -0.058255   0.625533   0.015364
    24  C    0.143391   0.150866   0.015236   0.149362   0.015364   5.221847
    25  H   -0.002514   0.465162  -0.012364   0.015552   0.000015  -0.079457
    26  H   -0.066401   0.015587   0.000016   0.466121  -0.012328  -0.079693
    27  H   -0.000390   0.001518  -0.002429   0.000003  -0.000013  -0.000067
    28  H   -0.000000   0.000000  -0.000001   0.000000  -0.000000   0.000000
    29  H    0.002395   0.000017  -0.000016   0.001225  -0.002236  -0.000053
    30  H    0.000001   0.000000  -0.000000   0.000000  -0.000001   0.000000
    31  N    0.007512  -0.107495  -0.000089  -0.107704  -0.000086   0.479183
    32  H    0.000513   0.011037   0.000010  -0.024053  -0.000017  -0.003370
    33  H   -0.000469  -0.024088  -0.000015   0.010985   0.000010  -0.003322
              25         26         27         28         29         30
     1  C    0.000002  -0.000001  -0.000348   0.000038  -0.037465   0.003498
     2  C   -0.000006  -0.000001  -0.037825   0.003516  -0.000394   0.000039
     3  C   -0.000289  -0.000282  -0.018622  -0.000451  -0.019119  -0.000447
     4  C   -0.000000  -0.000012   0.000000  -0.000000   0.450314   0.010218
     5  C   -0.000000  -0.000001   0.000000   0.000000  -0.062235  -0.052719
     6  C    0.000000   0.000000  -0.000000   0.000008   0.011472   0.426960
     7  H   -0.000000  -0.000000  -0.000000  -0.000000  -0.005018  -0.003645
     8  C    0.000000   0.000000   0.011457   0.426074  -0.000000   0.000008
     9  C    0.000001   0.000000   0.450574   0.010173   0.000001  -0.000000
    10  C   -0.000001   0.000000  -0.061884  -0.052141   0.000000   0.000000
    11  H   -0.000000  -0.000000  -0.005123  -0.003612  -0.000000  -0.000000
    12  N   -0.000000  -0.000000  -0.000015   0.000168   0.005006  -0.033127
    13  N   -0.000000  -0.000000   0.004920  -0.032926  -0.000016   0.000165
    14  B   -0.000000  -0.000000   0.000243   0.001973   0.000260   0.001640
    15  F    0.000000  -0.000000   0.000001  -0.000118   0.000001  -0.000167
    16  F   -0.000000   0.000000   0.000001   0.001286   0.000001   0.001526
    17  C    0.016457   0.016545   0.003777   0.000004   0.004761   0.000004
    18  C   -0.065512  -0.002529   0.002636   0.000000  -0.000522  -0.000000
    19  C   -0.002514  -0.066401  -0.000390  -0.000000   0.002395   0.000001
    20  C    0.465162   0.015587   0.001518   0.000000   0.000017   0.000000
    21  H   -0.012364   0.000016  -0.002429  -0.000001  -0.000016  -0.000000
    22  C    0.015552   0.466121   0.000003   0.000000   0.001225   0.000000
    23  H    0.000015  -0.012328  -0.000013  -0.000000  -0.002236  -0.000001
    24  C   -0.079457  -0.079693  -0.000067   0.000000  -0.000053   0.000000
    25  H    0.633546  -0.000165   0.000040  -0.000000  -0.000001  -0.000000
    26  H   -0.000165   0.633669  -0.000001  -0.000000   0.000041  -0.000000
    27  H    0.000040  -0.000001   0.599074  -0.000117  -0.000001  -0.000000
    28  H   -0.000000  -0.000000  -0.000117   0.553424  -0.000000  -0.000000
    29  H   -0.000001   0.000041  -0.000001  -0.000000   0.599511  -0.000119
    30  H   -0.000000  -0.000000  -0.000000  -0.000000  -0.000119   0.555133
    31  N   -0.010477  -0.010481  -0.000000   0.000000  -0.000000   0.000000
    32  H   -0.000268   0.004614   0.000000  -0.000000  -0.000000   0.000000
    33  H    0.004623  -0.000268  -0.000000  -0.000000  -0.000000   0.000000
              31         32         33
     1  C   -0.000000  -0.000000  -0.000000
     2  C   -0.000000   0.000000   0.000000
     3  C    0.000014  -0.000000  -0.000000
     4  C    0.000000   0.000000   0.000000
     5  C    0.000000   0.000000   0.000000
     6  C    0.000000  -0.000000  -0.000000
     7  H   -0.000000  -0.000000  -0.000000
     8  C    0.000000   0.000000   0.000000
     9  C    0.000000  -0.000000  -0.000000
    10  C    0.000000   0.000000  -0.000000
    11  H   -0.000000   0.000000  -0.000000
    12  N    0.000000  -0.000000  -0.000000
    13  N    0.000000  -0.000000  -0.000000
    14  B    0.000000  -0.000000  -0.000000
    15  F    0.000000   0.000000  -0.000000
    16  F    0.000000  -0.000000   0.000000
    17  C   -0.000393  -0.000012  -0.000012
    18  C    0.007525  -0.000505   0.000470
    19  C    0.007512   0.000513  -0.000469
    20  C   -0.107495   0.011037  -0.024088
    21  H   -0.000089   0.000010  -0.000015
    22  C   -0.107704  -0.024053   0.010985
    23  H   -0.000086  -0.000017   0.000010
    24  C    0.479183  -0.003370  -0.003322
    25  H   -0.010477  -0.000268   0.004623
    26  H   -0.010481   0.004614  -0.000268
    27  H   -0.000000   0.000000  -0.000000
    28  H    0.000000  -0.000000  -0.000000
    29  H   -0.000000  -0.000000  -0.000000
    30  H    0.000000   0.000000   0.000000
    31  N    6.154179   0.368066   0.368266
    32  H    0.368066   0.500950  -0.026674
    33  H    0.368266  -0.026674   0.500713
 Mulliken charges:
               1
     1  C   -0.009736
     2  C   -0.009381
     3  C    0.186538
     4  C   -0.039314
     5  C   -0.076508
     6  C    0.103149
     7  H    0.054465
     8  C    0.106321
     9  C   -0.035048
    10  C   -0.074292
    11  H    0.055179
    12  N   -0.202090
    13  N   -0.205261
    14  B    0.241941
    15  F   -0.247608
    16  F   -0.252596
    17  C   -0.066182
    18  C   -0.031777
    19  C   -0.032309
    20  C   -0.077387
    21  H    0.048744
    22  C   -0.077757
    23  H    0.047700
    24  C    0.041994
    25  H    0.035656
    26  H    0.035571
    27  H    0.052589
    28  H    0.092703
    29  H    0.052190
    30  H    0.091034
    31  N   -0.148018
    32  H    0.169711
    33  H    0.169782
 Sum of Mulliken charges =  -0.00000
 Mulliken charges with hydrogens summed into heavy atoms:
               1
     1  C   -0.009736
     2  C   -0.009381
     3  C    0.186538
     4  C    0.012876
     5  C   -0.022043
     6  C    0.194183
     8  C    0.199024
     9  C    0.017540
    10  C   -0.019114
    12  N   -0.202090
    13  N   -0.205261
    14  B    0.241941
    15  F   -0.247608
    16  F   -0.252596
    17  C   -0.066182
    18  C    0.016967
    19  C    0.015391
    20  C   -0.041731
    22  C   -0.042187
    24  C    0.041994
    31  N    0.191474
 Electronic spatial extent (au):  <R**2>=           6239.5207
 Charge=             -0.0000 electrons
 Dipole moment (field-independent basis, Debye):
    X=            -10.9984    Y=             -0.4246    Z=             -1.2810  Tot=             11.0809
 Quadrupole moment (field-independent basis, Debye-Ang):
   XX=            -94.0958   YY=            -98.2860   ZZ=           -125.7294
   XY=              4.5564   XZ=              2.3618   YZ=             -4.1139
 Traceless Quadrupole moment (field-independent basis, Debye-Ang):
   XX=             11.9413   YY=              7.7511   ZZ=            -19.6923
   XY=              4.5564   XZ=              2.3618   YZ=             -4.1139
 Octapole moment (field-independent basis, Debye-Ang**2):
  XXX=           -314.5653  YYY=              1.1840  ZZZ=              1.0887  XYY=             37.4473
  XXY=            -23.8137  XXZ=            -28.5087  XZZ=            -14.2353  YZZ=             -1.1464
  YYZ=             -3.0472  XYZ=             26.3948
 Hexadecapole moment (field-independent basis, Debye-Ang**3):
 XXXX=          -3963.4849 YYYY=          -1909.3612 ZZZZ=           -351.5464 XXXY=            168.8156
 XXXZ=            152.5518 YYYX=              8.5421 YYYZ=             22.6570 ZZZX=              4.2955
 ZZZY=            -22.1944 XXYY=          -1100.0497 XXZZ=          -1013.2195 YYZZ=           -454.7585
 XXYZ=            -96.9137 YYXZ=             -1.3305 ZZXY=              1.6673
 N-N= 1.584454890408D+03 E-N=-5.423658462233D+03  KE= 9.573085664947D+02
 Unable to Open any file for archive entry.
 1\1\GINC-X1002C5S6B1N1\SP\RM062X\def2SVP\C15H12B1F2N3\1008721\10-Oct-2
 025\0\\# m062x/def2svp geom=check guess=read SCRF=(SMD, solvent=ethano
 l, NonEq=Read)\\BDP-NH2_ethanol_m062x_m062x_m062x\\0,1\C,0,0.621942,-1
 .206612,-0.121114\C,0,0.63919,1.224157,0.014432\C,0,-0.110022,0.012736
 ,-0.034248\C,0,0.170737,-2.548141,-0.323101\C,0,1.299519,-3.352317,-0.
 385027\C,0,2.42336,-2.503271,-0.230905\H,0,1.339936,-4.428672,-0.53734
 3\C,0,2.465643,2.48884,0.075632\C,0,0.211887,2.590539,0.082431\C,0,1.3
 5481,3.372325,0.113027\H,0,1.415973,4.457272,0.163929\N,0,2.01691,-1.2
 35332,-0.072766\N,0,2.037335,1.220958,0.022463\B,0,2.955782,-0.022095,
 0.105362\F,0,3.597464,-0.0689,1.340936\F,0,3.910109,0.008087,-0.904619
 \C,0,-1.578278,0.016807,-0.005856\C,0,-2.332325,0.892942,-0.810039\C,0
 ,-2.289989,-0.869548,0.825767\C,0,-3.719121,0.887323,-0.786989\H,0,-1.
 820072,1.572755,-1.494106\C,0,-3.676307,-0.879409,0.860137\H,0,-1.7399
 33,-1.551522,1.478031\C,0,-4.425737,0.00211,0.05352\H,0,-4.278396,1.56
 8615,-1.431923\H,0,-4.201057,-1.568522,1.525477\H,0,-0.820862,2.926567
 ,0.113794\H,0,3.53016,2.724177,0.098205\H,0,-0.867484,-2.851383,-0.431
 289\H,0,3.483317,-2.757982,-0.238754\N,0,-5.793212,0.028989,0.1172\H,0
 ,-6.259241,-0.779109,0.514373\H,0,-6.288497,0.472406,-0.648335\\Versio
 n=ES64L-G16RevC.01\State=1-A\HF=-966.7466496\RMSD=4.634e-09\Dipole=-4.
 3270954,-0.1670559,-0.5039816\Quadrupole=8.87805,5.7627205,-14.6407705
 ,3.3876012,1.7559398,-3.0585629\PG=C01 [X(C15H12B1F2N3)]\\@
 The archive entry for this job was punched.


 YOU WILL NEVER "FIND" TIME FOR ANYTHING.
 IF YOU WANT TIME, YOU MUST MAKE IT.

                        -- CHARLES BIXTON
 Job cpu time:       0 days  0 hours 30 minutes 18.2 seconds.
 Elapsed time:       0 days  0 hours  1 minutes  0.1 seconds.
 File lengths (MBytes):  RWF=    485 Int=      0 D2E=      0 Chk=     25 Scr=      1
 Normal termination of Gaussian 16 at Fri Oct 10 19:38:15 2025.
