 Entering Gaussian System, Link 0=g16
 Initial command:
 /home/users/sutd/1005739/g16/l1.exe "/scratch/users/sutd/1005739/scratchFiles/Gau-16150.inp" -scrdir="/scratch/users/sutd/1005739/scratchFiles/"
 Entering Link 1 = /home/users/sutd/1005739/g16/l1.exe PID=     16151.
  
 Copyright (c) 1988,1990,1992,1993,1995,1998,2003,2009,2016,
            Gaussian, Inc.  All Rights Reserved.
  
 This is part of the Gaussian(R) 16 program.  It is based on
 the Gaussian(R) 09 system (copyright 2009, Gaussian, Inc.),
 the Gaussian(R) 03 system (copyright 2003, Gaussian, Inc.),
 the Gaussian(R) 98 system (copyright 1998, Gaussian, Inc.),
 the Gaussian(R) 94 system (copyright 1995, Gaussian, Inc.),
 the Gaussian 92(TM) system (copyright 1992, Gaussian, Inc.),
 the Gaussian 90(TM) system (copyright 1990, Gaussian, Inc.),
 the Gaussian 88(TM) system (copyright 1988, Gaussian, Inc.),
 the Gaussian 86(TM) system (copyright 1986, Carnegie Mellon
 University), and the Gaussian 82(TM) system (copyright 1983,
 Carnegie Mellon University). Gaussian is a federally registered
 trademark of Gaussian, Inc.
  
 This software contains proprietary and confidential information,
 including trade secrets, belonging to Gaussian, Inc.
  
 This software is provided under written license and may be
 used, copied, transmitted, or stored only in accord with that
 written license.
  
 The following legend is applicable only to US Government
 contracts under FAR:
  
                    RESTRICTED RIGHTS LEGEND
  
 Use, reproduction and disclosure by the US Government is
 subject to restrictions as set forth in subparagraphs (a)
 and (c) of the Commercial Computer Software - Restricted
 Rights clause in FAR 52.227-19.
  
 Gaussian, Inc.
 340 Quinnipiac St., Bldg. 40, Wallingford CT 06492
  
  
 ---------------------------------------------------------------
 Warning -- This program may not be used in any manner that
 competes with the business of Gaussian, Inc. or will provide
 assistance to any competitor of Gaussian, Inc.  The licensee
 of this program is prohibited from giving any competitor of
 Gaussian, Inc. access to this program.  By using this program,
 the user acknowledges that Gaussian, Inc. is engaged in the
 business of creating and licensing software in the field of
 computational chemistry and represents and warrants to the
 licensee that it is not a competitor of Gaussian, Inc. and that
 it will not use this program in any manner prohibited above.
 ---------------------------------------------------------------
  

 Cite this work as:
 Gaussian 16, Revision A.03,
 M. J. Frisch, G. W. Trucks, H. B. Schlegel, G. E. Scuseria, 
 M. A. Robb, J. R. Cheeseman, G. Scalmani, V. Barone, 
 G. A. Petersson, H. Nakatsuji, X. Li, M. Caricato, A. V. Marenich, 
 J. Bloino, B. G. Janesko, R. Gomperts, B. Mennucci, H. P. Hratchian, 
 J. V. Ortiz, A. F. Izmaylov, J. L. Sonnenberg, D. Williams-Young, 
 F. Ding, F. Lipparini, F. Egidi, J. Goings, B. Peng, A. Petrone, 
 T. Henderson, D. Ranasinghe, V. G. Zakrzewski, J. Gao, N. Rega, 
 G. Zheng, W. Liang, M. Hada, M. Ehara, K. Toyota, R. Fukuda, 
 J. Hasegawa, M. Ishida, T. Nakajima, Y. Honda, O. Kitao, H. Nakai, 
 T. Vreven, K. Throssell, J. A. Montgomery, Jr., J. E. Peralta, 
 F. Ogliaro, M. J. Bearpark, J. J. Heyd, E. N. Brothers, K. N. Kudin, 
 V. N. Staroverov, T. A. Keith, R. Kobayashi, J. Normand, 
 K. Raghavachari, A. P. Rendell, J. C. Burant, S. S. Iyengar, 
 J. Tomasi, M. Cossi, J. M. Millam, M. Klene, C. Adamo, R. Cammi, 
 J. W. Ochterski, R. L. Martin, K. Morokuma, O. Farkas, 
 J. B. Foresman, and D. J. Fox, Gaussian, Inc., Wallingford CT, 2016.
 
 ******************************************
 Gaussian 16:  ES64L-G16RevA.03 25-Dec-2016
                16-Feb-2023 
 ******************************************
 %nprocshared=24
 Will use up to   24 processors via shared memory.
 %mem=24GB
 %oldchk=02Naph_2C_000005_wB97XD_EtOH.chk
 %chk=03Naph_2C_000005_wB97XD_EtOH.chk
 Copying data from "02Naph_2C_000005_wB97XD_EtOH.chk" to current chk file "03Naph_2C_000005_wB97XD_EtOH.chk"
 IOpt=  2 FromEx=T IUOpen= 4 IOptOp= 5 NList=   0 IFRang= 0 IUIn= 4 IUOut= 2.
 ----------------------------------------------------------------------
 # td=(nstates=5,root=2) wb97xd scrf=(smd,solvent=ethanol,correctedlr) 
 guess=read geom=check def2svp
 ----------------------------------------------------------------------
 1/29=2,30=1,38=1,172=1/1;
 2/12=2,40=1/2;
 3/5=43,7=101,11=9,14=-4,25=1,30=1,70=32201,71=1,72=4,74=-58,116=-2/1,2,3,8;
 4/5=1/1;
 5/5=2,38=6,53=4/2;
 8/6=1,10=1,107=2,108=5/1;
 9/8=2,15=1,41=5,42=1,70=2,73=21/14;
 10/5=4,13=10,28=2,74=10/2;
 6/7=2,8=2,9=2,10=2,22=-1/1;
 99/5=1,9=1/99;
 --------------------------
 Naph_2C_000005_wB97XD_EtOH
 --------------------------
 Structure from the checkpoint file:  "03Naph_2C_000005_wB97XD_EtOH.chk"
 Charge =  0 Multiplicity = 1
 Z-Matrix found in chk file.
 C,0,7.077881,0.87399,0.342747
 H,0,7.126455,1.772014,0.977373
 H,0,7.084278,1.200808,-0.70818
 H,0,8.002247,0.282924,0.521563
 C,0,1.161013,0.531276,-0.337726
 C,0,-0.247879,0.354811,-0.41586
 C,0,-0.813232,-0.940646,-0.535707
 C,0,-1.094684,1.49043,-0.367679
 C,0,2.01813,-0.641407,-0.376881
 C,0,1.669384,1.846282,-0.226321
 H,0,2.745736,2.024768,-0.174891
 C,0,1.41786,-1.907397,-0.494731
 H,0,2.039287,-2.802154,-0.520814
 C,0,-2.563999,1.32388,-0.439017
 N,0,-3.052282,0.033274,-0.593176
 C,0,0.034513,-2.041443,-0.572404
 H,0,-0.402158,-3.038792,-0.660978
 C,0,0.827631,2.941241,-0.183848
 H,0,1.244306,3.946375,-0.09825
 N,0,3.353624,-0.502982,-0.310635
 H,0,3.761089,0.393351,-0.05689
 C,0,-0.562325,2.762705,-0.251542
 H,0,-1.23555,3.621308,-0.216442
 C,0,-2.26081,-1.123125,-0.6152
 O,0,-3.330961,2.272579,-0.370729
 O,0,-2.796215,-2.220427,-0.700124
 C,0,4.301181,-1.589065,-0.225075
 H,0,4.183362,-2.280797,-1.074412
 H,0,4.136048,-2.181852,0.693377
 N,0,5.869151,0.127588,0.629068
 C,0,5.711482,-1.008764,-0.263721
 H,0,6.435362,-1.822704,-0.045873
 H,0,5.917633,-0.659341,-1.287699
 C,0,5.786133,-0.238195,2.030005
 H,0,4.813729,-0.698377,2.260339
 H,0,5.879804,0.661281,2.656722
 H,0,6.582947,-0.951186,2.334331
 C,0,-4.504416,-0.136861,-0.659072
 H,0,-4.704053,-1.016233,-1.283249
 H,0,-4.916105,0.744986,-1.165386
 C,0,-5.140895,-0.305642,0.71595
 H,0,-4.692207,-1.181628,1.214501
 H,0,-4.899423,0.575158,1.334919
 C,0,-6.654506,-0.478235,0.636211
 H,0,-7.092535,0.394493,0.121121
 H,0,-6.887409,-1.353803,0.005387
 C,0,-7.307284,-0.645031,2.002679
 H,0,-8.398027,-0.76715,1.915369
 H,0,-6.9127,-1.530339,2.527504
 H,0,-7.119225,0.23169,2.643731
 Recover connectivity data from disk.
                          Input orientation:                          
 ---------------------------------------------------------------------
 Center     Atomic      Atomic             Coordinates (Angstroms)
 Number     Number       Type             X           Y           Z
 ---------------------------------------------------------------------
      1          6           0        7.077881    0.873990    0.342747
      2          1           0        7.126455    1.772014    0.977373
      3          1           0        7.084278    1.200808   -0.708180
      4          1           0        8.002247    0.282924    0.521563
      5          6           0        1.161013    0.531276   -0.337726
      6          6           0       -0.247879    0.354811   -0.415860
      7          6           0       -0.813232   -0.940646   -0.535707
      8          6           0       -1.094684    1.490430   -0.367679
      9          6           0        2.018130   -0.641407   -0.376881
     10          6           0        1.669384    1.846282   -0.226321
     11          1           0        2.745736    2.024768   -0.174891
     12          6           0        1.417860   -1.907397   -0.494731
     13          1           0        2.039287   -2.802154   -0.520814
     14          6           0       -2.563999    1.323880   -0.439017
     15          7           0       -3.052282    0.033274   -0.593176
     16          6           0        0.034513   -2.041443   -0.572404
     17          1           0       -0.402158   -3.038792   -0.660978
     18          6           0        0.827631    2.941241   -0.183848
     19          1           0        1.244306    3.946375   -0.098250
     20          7           0        3.353624   -0.502982   -0.310635
     21          1           0        3.761089    0.393351   -0.056890
     22          6           0       -0.562325    2.762705   -0.251542
     23          1           0       -1.235550    3.621308   -0.216442
     24          6           0       -2.260810   -1.123125   -0.615200
     25          8           0       -3.330961    2.272579   -0.370729
     26          8           0       -2.796215   -2.220427   -0.700124
     27          6           0        4.301181   -1.589065   -0.225075
     28          1           0        4.183362   -2.280797   -1.074412
     29          1           0        4.136048   -2.181852    0.693377
     30          7           0        5.869151    0.127588    0.629068
     31          6           0        5.711482   -1.008764   -0.263721
     32          1           0        6.435362   -1.822704   -0.045873
     33          1           0        5.917633   -0.659341   -1.287699
     34          6           0        5.786133   -0.238195    2.030005
     35          1           0        4.813729   -0.698377    2.260339
     36          1           0        5.879804    0.661281    2.656722
     37          1           0        6.582947   -0.951186    2.334331
     38          6           0       -4.504416   -0.136861   -0.659072
     39          1           0       -4.704053   -1.016233   -1.283249
     40          1           0       -4.916105    0.744986   -1.165386
     41          6           0       -5.140895   -0.305642    0.715950
     42          1           0       -4.692207   -1.181628    1.214501
     43          1           0       -4.899423    0.575158    1.334919
     44          6           0       -6.654506   -0.478235    0.636211
     45          1           0       -7.092535    0.394493    0.121121
     46          1           0       -6.887409   -1.353803    0.005387
     47          6           0       -7.307284   -0.645031    2.002679
     48          1           0       -8.398027   -0.767150    1.915369
     49          1           0       -6.912700   -1.530339    2.527504
     50          1           0       -7.119225    0.231690    2.643731
 ---------------------------------------------------------------------
                    Distance matrix (angstroms):
                    1          2          3          4          5
     1  C    0.000000
     2  H    1.100707   0.000000
     3  H    1.100590   1.780209   0.000000
     4  H    1.111659   1.786663   1.788140   0.000000
     5  C    5.965721   6.233411   5.972485   6.899459   0.000000
     6  C    7.383210   7.637432   7.386588   8.303524   1.422048
     7  C    8.144584   8.525642   8.184512   8.962567   2.470505
     8  C    8.226513   8.335201   8.191168   9.219706   2.451335
     9  C    5.330607   5.809784   5.400868   6.121376   1.453055
    10  C    5.524584   5.588740   5.474477   6.565712   1.414246
    11  H    4.512175   4.536772   4.448174   5.581216   2.183662
    12  C    6.361865   6.949332   6.466436   7.013167   2.457183
    13  H    6.296602   7.003346   6.442883   6.794200   3.452049
    14  C    9.683977   9.803667   9.652815  10.660763   3.809750
    15  N   10.207985  10.444928  10.204225  11.113396   4.250308
    16  C    7.677648   8.199994   7.760787   8.371633   2.818326
    17  H    8.501077   9.083395   8.603671   9.114067   3.910675
    18  C    6.604275   6.510815   6.515341   7.683708   2.437776
    19  H    6.607921   6.362742   6.481931   7.711991   3.424498
    20  N    4.024059   4.590079   4.120524   4.787473   2.424452
    21  H    3.375179   3.781018   3.481343   4.281848   2.618833
    22  C    7.892602   7.849143   7.817837   8.949799   2.820744
    23  H    8.773459   8.646861   8.678719   9.850196   3.912355
    24  C    9.597775   9.951827   9.630160  10.421110   3.810893
    25  O   10.526590  10.555827  10.475675  11.541079   4.817785
    26  O   10.400037  10.826493  10.456054  11.151954   4.833514
    27  C    3.754880   4.552462   3.970190   4.214226   3.790672
    28  H    4.509907   5.412661   4.546539   4.868643   4.193454
    29  H    4.256230   4.965505   4.700937   4.588261   4.156329
    30  N    1.449180   2.099111   2.101563   2.141445   4.823300
    31  C    2.404082   3.357855   2.639000   2.744583   4.804578
    32  H    2.799288   3.800874   3.162494   2.685290   5.783179
    33  H    2.521038   3.535999   2.270915   2.916660   4.994542
    34  C    2.398418   2.635420   3.354634   2.730957   5.252616
    35  H    3.357958   3.619052   4.192183   3.762039   4.648045
    36  H    2.614405   2.368138   3.614473   3.034275   5.590224
    37  H    2.746386   3.090721   3.760224   2.612196   6.223741
    38  C   11.669407  11.899534  11.665745  12.569278   5.713734
    39  H   12.042872  12.363076  12.008777  12.899427   6.139039
    40  H   12.089119  12.274749  12.017737  13.036223   6.136942
    41  C   12.281258  12.444793  12.399693  13.157750   6.443967
    42  H   11.980004  12.184457  12.167921  12.797431   6.293142
    43  H   12.022043  12.090577  12.172706  12.930585   6.287174
    44  C   13.801923  13.967638  13.906141  14.676952   7.940403
    45  H   14.180258  14.311199  14.223920  15.100505   8.267424
    46  H   14.145890  14.391104  14.221225  14.988234   8.273352
    47  C   14.560075  14.670589  14.760519  15.408976   8.864155
    48  H   15.641938  15.758703  15.825853  16.492857   9.906442
    49  H   14.362810  14.505389  14.623413  15.158079   8.811620
    50  H   14.396697  14.425281  14.625799  15.269746   8.805747
                    6          7          8          9         10
     6  C    0.000000
     7  C    1.418519   0.000000
     8  C    1.417403   2.453075   0.000000
     9  C    2.475635   2.851558   3.772854   0.000000
    10  C    2.436454   3.745139   2.790463   2.516523   0.000000
    11  H    3.436358   4.646517   3.882204   2.771047   1.092262
    12  C    2.810426   2.431884   4.227795   1.406038   3.771659
    13  H    3.899817   3.406215   5.317095   2.165639   4.672420
    14  C    2.510785   2.864020   1.480444   4.986193   4.270793
    15  N    2.828339   2.442369   2.450784   5.119673   5.071066
    16  C    2.417909   1.389882   3.713640   2.435789   4.231664
    17  H    3.405940   2.141703   4.591238   3.418473   5.323923
    18  C    2.810724   4.229100   2.415355   3.780201   1.381770
    19  H    3.902156   5.320508   3.402225   4.660921   2.146505
    20  N    3.703742   4.195819   4.874873   1.344282   2.891853
    21  H    4.025192   4.788865   4.987856   2.052078   2.552439
    22  C    2.433892   3.722702   1.384044   4.273457   2.412673
    23  H    3.418372   4.592571   2.140878   5.364971   3.404329
    24  C    2.505179   1.461198   2.872592   4.312560   4.941157
    25  O    3.631152   4.085461   2.369114   6.091316   5.020561
    26  O    3.634099   2.365818   4.095874   5.076978   6.058398
    27  C    4.950656   5.164703   6.214417   2.476575   4.327582
    28  H    5.197693   5.201169   6.525289   2.803993   4.906335
    29  H    5.184967   5.248487   6.478584   2.829134   4.812083
    30  N    6.209796   6.866736   7.165601   4.053844   4.617753
    31  C    6.115265   6.530736   7.251253   3.713301   4.948863
    32  H    7.038762   7.318475   8.232983   4.584427   6.017355
    33  H    6.308894   6.778582   7.391924   4.004502   5.045026
    34  C    6.537829   7.115331   7.488837   4.489268   5.136504
    35  H    5.821608   6.288025   6.826910   3.843637   4.748228
    36  H    6.861719   7.586468   7.647089   5.080578   5.238683
    37  H    7.478594   7.933517   8.497551   5.318288   6.206921
    38  C    4.291736   3.779700   3.789361   6.548115   6.498918
    39  H    4.742321   3.962704   4.488783   6.793360   7.066243
    40  H    4.744087   4.480114   3.974328   7.115296   6.742652
    41  C    5.065451   4.549565   4.557625   7.249735   7.204065
    42  H    4.977025   4.262364   4.752406   6.917583   7.191248
    43  H    4.975002   4.742769   4.267622   7.229304   6.870404
    44  C    6.545662   5.975592   5.982897   8.733132   8.685303
    45  H    6.865802   6.453190   6.116716   9.182881   8.888174
    46  H    6.868782   6.112210   6.464093   8.942162   9.138541
    47  C    7.528892   6.978790   6.983924   9.624223   9.578917
    48  H    8.550926   7.972891   7.977957  10.666140  10.619304
    49  H    7.525757   6.850877   7.166341   9.433206   9.624827
    50  H    7.522742   7.158823   6.851869   9.663211   9.385295
                   11         12         13         14         15
    11  H    0.000000
    12  C    4.162628   0.000000
    13  H    4.890594   1.089698   0.000000
    14  C    5.362303   5.128300   6.182321   0.000000
    15  N    6.144756   4.874225   5.828290   1.388470   0.000000
    16  C    4.903348   1.391995   2.144869   4.253875   3.719299
    17  H    5.982070   2.149455   2.456888   4.873985   4.057751
    18  C    2.125824   4.894314   5.879476   3.766181   4.865958
    19  H    2.439824   5.869750   6.808318   4.636463   5.832493
    20  N    2.603358   2.398636   2.656661   6.194527   6.434519
    21  H    1.925198   3.312985   3.659382   6.404580   6.843923
    22  C    3.390235   5.078398   6.148866   2.472259   3.710309
    23  H    4.289674   6.138779   7.216513   2.663173   4.039360
    24  C    5.930312   3.763271   4.617237   2.472003   1.401489
    25  O    6.084900   6.327628   7.390196   1.221853   2.267517
    26  O    7.000769   4.230674   4.873668   3.561490   2.270722
    27  C    3.934681   2.913347   2.583643   7.460678   7.539290
    28  H    4.627504   2.850168   2.274938   7.676217   7.611902
    29  H    4.514699   2.979173   2.501088   7.646117   7.631126
    30  N    3.741840   5.021761   4.957164   8.584284   9.005262
    31  C    4.243331   4.392732   4.094797   8.599741   8.831644
    32  H    5.332263   5.038251   4.528837   9.541701   9.682953
    33  H    4.301594   4.736496   4.496813   8.751657   9.023384
    34  C    4.384813   5.314352   5.207631   8.846516   9.223468
    35  H    4.197911   4.536967   4.456256   8.112146   8.399523
    36  H    4.438413   6.036448   6.069735   9.017785   9.525670
    37  H    5.465957   5.966243   5.676511   9.825172  10.118157
    38  C    7.581014   6.183458   7.067033   2.438731   1.463551
    39  H    8.122530   6.236486   7.017368   3.281568   2.075094
    40  H    7.830883   6.899567   7.834230   2.528860   2.075523
    41  C    8.271841   6.859201   7.701764   3.260320   2.488168
    42  H    8.217930   6.386011   7.137957   3.679805   2.726360
    43  H    7.926497   7.029848   7.936982   3.026820   2.724540
    44  C    9.761530   8.275544   9.073111   4.597389   3.840449
    45  H    9.976823   8.837692   9.696433   4.656732   4.118779
    46  H   10.210031   8.338710   9.058726   5.104836   4.121948
    47  C   10.626987   9.162901   9.918648   5.686584   5.030269
    48  H   11.676791  10.171548  10.909342   6.629587   5.959066
    49  H   10.640823   8.869854   9.541899   5.988156   5.204455
    50  H   10.415240   9.343846  10.153664   5.607700   5.201631
                   16         17         18         19         20
    16  C    0.000000
    17  H    1.092352   0.000000
    18  C    5.060351   6.123792   0.000000
    19  H    6.127184   7.198615   1.091439   0.000000
    20  N    3.667681   4.545214   4.273100   4.928601   0.000000
    21  H    4.481221   5.429287   3.887549   4.354295   1.016773
    22  C    4.851701   5.818132   1.403009   2.165292   5.099300
    23  H    5.814337   6.726744   2.172618   2.503862   6.170831
    24  C    2.472579   2.669544   5.122851   6.184893   5.656784
    25  O    5.475205   6.072297   4.216150   4.879437   7.238165
    26  O    2.839255   2.530368   6.327845   7.397128   6.397018
    27  C    4.304618   4.940963   5.708846   6.324687   1.443870
    28  H    4.185959   4.666099   6.270862   6.954755   2.105338
    29  H    4.294707   4.812893   6.161268   6.822317   2.106854
    30  N    6.339655   7.142793   5.830472   6.041632   2.758358
    31  C    5.778381   6.454101   6.281793   6.673563   2.411952
    32  H    6.426192   6.972009   7.359406   7.760933   3.362867
    33  H    6.085471   6.781912   6.331729   6.668388   2.748317
    34  C    6.565468   7.306140   6.292591   6.532097   3.386120
    35  H    5.715695   6.420055   5.925356   6.314859   2.963105
    36  H    7.204124   8.010039   6.228283   6.314234   4.067223
    37  H    7.247052   7.881730   7.390255   7.642293   4.198245
    38  C    4.923091   5.024911   6.175053   7.073552   7.874277
    39  H    4.900037   4.794191   6.889834   7.836752   8.132377
    40  H    5.711780   5.911609   6.227155   7.024125   8.406928
    41  C    5.608717   5.641070   6.853845   7.714490   8.558602
    42  H    5.125836   5.036963   7.030081   7.953736   8.217177
    43  H    5.901543   6.104886   6.379980   7.152935   8.484281
    44  C    6.974765   6.879753   8.267266   9.083382  10.052850
    45  H    7.563701   7.560441   8.325140   9.064596  10.493527
    46  H    6.979950   6.733625   8.832047   9.707081  10.281173
    47  C    7.904619   7.778555   9.155277   9.930992  10.909929
    48  H    8.883725   8.702404  10.162266  10.920008  11.963535
    49  H    7.624593   7.404661   9.341262  10.169844  10.700837
    50  H    8.166188   8.169219   8.859424   9.553324  10.906355
                   21         22         23         24         25
    21  H    0.000000
    22  C    4.933927   0.000000
    23  H    5.950762   1.091633   0.000000
    24  C    6.234956   4.256380   4.870299   0.000000
    25  O    7.343512   2.814209   2.496722   3.568725   0.000000
    26  O    7.088288   5.479333   6.065929   1.223905   4.536690
    27  C    2.061543   6.526277   7.602858   6.590070   8.554712
    28  H    2.892185   6.973921   8.058261   6.563416   8.814389
    29  H    2.708351   6.885944   7.959805   6.614610   8.759595
    30  N    2.232732   7.005940   7.962270   8.319180   9.499613
    31  C    2.410962   7.320163   8.348716   7.980856   9.620002
    32  H    3.473148   8.368745   9.407936   8.742823  10.595185
    33  H    2.696986   7.400937   8.404735   8.219141   9.745434
    34  C    2.975699   7.383345   8.321437   8.516660   9.756481
    35  H    2.769381   6.869541   7.835043   7.648414   9.060081
    36  H    3.453177   7.373941   8.224664   8.953166   9.828526
    37  H    3.935556   8.457815   9.409731   9.324234  10.770125
    38  C    8.304356   4.910565   5.000524   2.451206   2.695466
    39  H    8.668882   5.700763   5.888580   2.535183   3.678907
    40  H    8.754776   4.884844   4.766572   3.292892   2.340449
    41  C    8.962767   5.595900   5.616227   3.276451   3.332260
    42  H    8.692250   5.896013   6.088043   3.043505   4.037015
    43  H    8.773520   5.110053   5.010960   3.694510   2.872376
    44  C   10.474954   6.957476   6.848237   4.613727   4.430221
    45  H   10.855084   6.956360   6.695562   5.117705   4.233032
    46  H   10.791058   7.551049   7.532891   4.673731   5.093175
    47  C   11.306146   7.885978   7.745457   5.705152   5.473268
    48  H   12.372577   8.863047   8.666271   6.648002   6.335721
    49  H   11.149415   8.153563   8.142404   5.628720   5.974177
    50  H   11.211633   7.601420   7.368021   6.005027   5.253869
                   26         27         28         29         30
    26  O    0.000000
    27  C    7.141241   0.000000
    28  H    6.989866   1.101702   0.000000
    29  H    7.071040   1.105540   1.771188   0.000000
    30  N    9.075709   2.476891   3.397653   2.888130   0.000000
    31  C    8.604620   1.525514   2.147193   2.184986   1.453694
    32  H    9.263274   2.154398   2.517786   2.441787   2.140042
    33  H    8.872056   2.146270   2.383759   3.068672   2.072584
    34  C    9.221689   3.019158   4.047036   2.878742   1.450281
    35  H    8.306156   2.689482   3.744593   2.261707   2.111203
    36  H    9.738889   3.982570   5.045305   3.870247   2.096741
    37  H    9.939194   3.487679   4.375546   3.192896   2.140369
    38  C    2.694603   8.935087   8.958039   8.981577  10.456583
    39  H    2.330228   9.085269   8.979359   9.133077  10.805458
    40  H    3.674789   9.554598   9.589783   9.693444  10.950936
    41  C    3.342034   9.575255   9.697856   9.464795  11.018909
    42  H    2.887850   9.116985   9.231632   8.900006  10.658286
    43  H    4.047243   9.579591   9.821321   9.468496  10.800960
    44  C    4.439306  11.045489  11.119121  10.924360  12.538304
    45  H    5.096137  11.570269  11.650422  11.534561  12.974381
    46  H    4.241067  11.193436  11.161866  11.075902  12.857423
    47  C    5.489696  11.857932  12.007463  11.620066  13.270350
    48  H    6.350836  12.904531  13.020033  12.672714  14.352961
    49  H    5.276292  11.546916  11.690149  11.218882  13.027989
    50  H    5.990214  11.915153  12.160824  11.675197  13.144110
                   31         32         33         34         35
    31  C    0.000000
    32  H    1.110837   0.000000
    33  H    1.101420   1.778648   0.000000
    34  C    2.420853   2.690992   3.346911   0.000000
    35  H    2.696883   3.035197   3.716006   1.100178   0.000000
    36  H    3.368437   3.712526   4.159799   1.100275   1.772655
    37  H    2.740920   2.539034   3.694173   1.111703   1.788720
    38  C   10.260657  11.085884  10.454055  10.636579   9.780904
    39  H   10.465317  11.236906  10.627681  11.028463  10.161015
    40  H   10.808989  11.691969  10.925062  11.212273  10.415784
    41  C   10.919168  11.700067  11.244143  11.005963  10.081365
    42  H   10.509604  11.217055  10.913409  10.552285   9.575496
    43  H   10.846924  11.667634  11.198697  10.738985   9.839899
    44  C   12.410036  13.176399  12.719784  12.520774  11.584760
    45  H   12.886430  13.709407  13.128588  13.034731  12.146182
    46  H   12.606487  13.331119  12.888889  12.882637  11.934447
    47  C   13.219574  13.944311  13.628104  13.099765  12.123869
    48  H   14.278832  14.999670  14.670017  14.194482  13.216438
    49  H   12.939588  13.597004  13.413868  12.774095  11.758940
    50  H   13.214350  13.970731  13.645869  12.928485  11.975283
                   36         37         38         39         40
    36  H    0.000000
    37  H    1.788406   0.000000
    38  C   10.929938  11.513175   0.000000
    39  H   11.417331  11.852742   1.096698   0.000000
    40  H   11.452824  12.138913   1.097040   1.777850   0.000000
    41  C   11.231979  11.852610   1.524558   2.166233   2.166512
    42  H   10.827914  11.332971   2.153388   2.503248   3.070152
    43  H   10.860309  11.626408   2.153834   3.070097   2.506121
    44  C   12.747152  13.354305   2.533216   2.788913   2.786406
    45  H   13.220515  13.918619   2.754886   3.109220   2.552409
    46  H   13.194388  13.676131   2.757011   2.557651   3.108322
    47  C   13.267762  13.897562   3.898618   4.208554   4.205534
    48  H   14.368245  14.987961   4.710119   4.892713   4.888905
    49  H   12.979524  13.509449   4.230352   4.434441   4.775032
    50  H   13.006132  13.756614   4.228660   4.776143   4.430190
                   41         42         43         44         45
    41  C    0.000000
    42  H    1.103279   0.000000
    43  H    1.103286   1.773058   0.000000
    44  C    1.525505   2.163284   2.162902   0.000000
    45  H    2.157060   3.072655   2.513103   1.104011   0.000000
    46  H    2.157279   2.512073   3.072562   1.103994   1.764089
    47  C    2.542459   2.783485   2.780748   1.523540   2.160321
    48  H    3.501500   3.794221   3.791958   2.181647   2.504606
    49  H    2.814410   2.603107   3.147803   2.179582   3.086746
    50  H    2.814046   3.151283   2.599708   2.179471   2.527999
                   46         47         48         49         50
    46  H    0.000000
    47  C    2.160516   0.000000
    48  H    2.504827   1.101025   0.000000
    49  H    2.528414   1.102229   1.778585   0.000000
    50  H    3.086808   1.102249   1.778631   1.777894   0.000000
 Stoichiometry    C20H25N3O2
 Framework group  C1[X(C20H25N3O2)]
 Deg. of freedom   144
 Full point group                 C1      NOp   1
 Largest Abelian subgroup         C1      NOp   1
 Largest concise Abelian subgroup C1      NOp   1
                         Standard orientation:                         
 ---------------------------------------------------------------------
 Center     Atomic      Atomic             Coordinates (Angstroms)
 Number     Number       Type             X           Y           Z
 ---------------------------------------------------------------------
      1          6           0        7.077881    0.873990    0.342747
      2          1           0        7.126455    1.772014    0.977373
      3          1           0        7.084278    1.200808   -0.708180
      4          1           0        8.002247    0.282924    0.521563
      5          6           0        1.161013    0.531276   -0.337726
      6          6           0       -0.247879    0.354811   -0.415860
      7          6           0       -0.813232   -0.940646   -0.535707
      8          6           0       -1.094684    1.490430   -0.367679
      9          6           0        2.018130   -0.641407   -0.376881
     10          6           0        1.669384    1.846282   -0.226321
     11          1           0        2.745736    2.024768   -0.174891
     12          6           0        1.417860   -1.907397   -0.494731
     13          1           0        2.039287   -2.802154   -0.520814
     14          6           0       -2.563999    1.323880   -0.439017
     15          7           0       -3.052282    0.033274   -0.593176
     16          6           0        0.034513   -2.041443   -0.572404
     17          1           0       -0.402158   -3.038792   -0.660978
     18          6           0        0.827631    2.941241   -0.183848
     19          1           0        1.244306    3.946375   -0.098250
     20          7           0        3.353624   -0.502982   -0.310635
     21          1           0        3.761089    0.393351   -0.056890
     22          6           0       -0.562325    2.762705   -0.251542
     23          1           0       -1.235550    3.621308   -0.216442
     24          6           0       -2.260810   -1.123125   -0.615200
     25          8           0       -3.330961    2.272579   -0.370729
     26          8           0       -2.796215   -2.220427   -0.700124
     27          6           0        4.301181   -1.589065   -0.225075
     28          1           0        4.183362   -2.280797   -1.074412
     29          1           0        4.136048   -2.181852    0.693377
     30          7           0        5.869151    0.127588    0.629068
     31          6           0        5.711482   -1.008764   -0.263721
     32          1           0        6.435362   -1.822704   -0.045873
     33          1           0        5.917633   -0.659341   -1.287699
     34          6           0        5.786133   -0.238195    2.030005
     35          1           0        4.813729   -0.698377    2.260339
     36          1           0        5.879804    0.661281    2.656722
     37          1           0        6.582947   -0.951186    2.334331
     38          6           0       -4.504416   -0.136861   -0.659072
     39          1           0       -4.704053   -1.016233   -1.283249
     40          1           0       -4.916105    0.744986   -1.165386
     41          6           0       -5.140895   -0.305642    0.715950
     42          1           0       -4.692207   -1.181628    1.214501
     43          1           0       -4.899423    0.575158    1.334919
     44          6           0       -6.654506   -0.478235    0.636211
     45          1           0       -7.092535    0.394493    0.121121
     46          1           0       -6.887409   -1.353803    0.005387
     47          6           0       -7.307284   -0.645031    2.002679
     48          1           0       -8.398027   -0.767150    1.915369
     49          1           0       -6.912700   -1.530339    2.527504
     50          1           0       -7.119225    0.231690    2.643731
 ---------------------------------------------------------------------
 Rotational constants (GHZ):           0.5434776           0.0886374           0.0813845
 Standard basis: def2SVP (5D, 7F)
 There are   500 symmetry adapted cartesian basis functions of A   symmetry.
 There are   475 symmetry adapted basis functions of A   symmetry.
   475 basis functions,   800 primitive gaussians,   500 cartesian basis functions
    91 alpha electrons       91 beta electrons
       nuclear repulsion energy      2130.1288510492 Hartrees.
 NAtoms=   50 NActive=   50 NUniq=   50 SFac= 1.00D+00 NAtFMM=   60 NAOKFM=F Big=F
 Integral buffers will be    131072 words long.
 Raffenetti 1 integral format.
 Two-electron integral symmetry is turned on.
 Nuclear repulsion after empirical dispersion term =     2130.0903437652 Hartrees.
 ------------------------------------------------------------------------------
 Polarizable Continuum Model (PCM)
 =================================
 Model                : PCM.
 Atomic radii         : SMD-Coulomb.
 Polarization charges : Total charges.
 Charge compensation  : None.
 Solution method      : On-the-fly selection.
 Cavity type          : VdW (van der Waals Surface) (Alpha=1.000).
 Cavity algorithm     : GePol (No added spheres)
                        Default sphere list used, NSphG=   50.
                        Lebedev-Laikov grids with approx.  5.0 points / Ang**2.
                        Smoothing algorithm: York/Karplus (Gamma=1.0000).
                        Polarization charges: spherical gaussians, with
                                              point-specific exponents (IZeta= 3).
                        Self-potential: point-specific (ISelfS= 7).
                        Self-field    : sphere-specific E.n sum rule (ISelfD= 2).
 1st derivatives      : Analytical E(r).r(x)/FMM algorithm (CHGder, D1EAlg=3).
                        Cavity 1st derivative terms included.
 Solvent              : Ethanol, Eps=  24.852000 Eps(inf)=   1.852593
 ------------------------------------------------------------------------------
 ------------------------------------------------------------------------------
 Atomic radii for non-electrostatic terms: SMD-CDS.
 ------------------------------------------------------------------------------
 Nuclear repulsion after PCM non-electrostatic terms =     2130.0873662801 Hartrees.
 One-electron integrals computed using PRISM.
   1 Symmetry operations used in ECPInt.
 ECPInt:  NShTT=   25425 NPrTT=   90925 LenC2=   20310 LenP2D=   49173.
 LDataN:  DoStor=T MaxTD1= 4 Len=   56
 NBasis=   475 RedAO= T EigKep=  2.11D-04  NBF=   475
 NBsUse=   475 1.00D-06 EigRej= -1.00D+00 NBFU=   475
 Initial guess from the checkpoint file:  "03Naph_2C_000005_wB97XD_EtOH.chk"
 B after Tr=    -0.000000    0.000000    0.000000
         Rot=    1.000000   -0.000000   -0.000000   -0.000000 Ang=   0.00 deg.
 Requested convergence on RMS density matrix=1.00D-08 within 128 cycles.
 Requested convergence on MAX density matrix=1.00D-06.
 Requested convergence on             energy=1.00D-06.
 No special actions if energy rises.
 Inv3:  Mode=1 IEnd=    36310323.
 Iteration    1 A*A^-1 deviation from unit magnitude is 9.55D-15 for    841.
 Iteration    1 A*A^-1 deviation from orthogonality  is 7.02D-15 for   2727    430.
 Iteration    1 A^-1*A deviation from unit magnitude is 9.77D-15 for    841.
 Iteration    1 A^-1*A deviation from orthogonality  is 3.84D-15 for   2996   1131.
 Error on total polarization charges =  0.06230
 SCF Done:  E(RwB97XD) =  -1090.86374616     A.U. after    1 cycles
            NFock=  1  Conv=0.19D-08     -V/T= 2.0110
 SMD-CDS (non-electrostatic) energy       (kcal/mol) =      -1.87
 (included in total energy above)
 DoSCS=F DFT=T ScalE2(SS,OS)=  1.000000  1.000000
 ExpMin= 1.22D-01 ExpMax= 2.27D+03 ExpMxC= 3.41D+02 IAcc=3 IRadAn=         5 AccDes= 0.00D+00
 HarFok:  IExCor=  205 AccDes= 0.00D+00 IRadAn=         5 IDoV=-2 UseB2=F ITyADJ=14
 ICtDFT= 12500011 ScaDFX=  1.000000  1.000000  1.000000  1.000000
 GSVD:  LWork=        -825 too small for GESVD, short by        3500 words or        3500 for optimal perf.
 Range of M.O.s used for correlation:    26   475
 NBasis=   475 NAE=    91 NBE=    91 NFC=    25 NFV=     0
 NROrb=    450 NOA=    66 NOB=    66 NVA=   384 NVB=   384

 **** Warning!!: The largest alpha MO coefficient is  0.13238364D+02

 NEqPCM:  Using non-equilibrium solvation (IEInf=1, Eps=  24.8520, EpsInf=   1.8526)
 Inv3:  Mode=1 IEnd=    36310323.
 Iteration    1 A*A^-1 deviation from unit magnitude is 9.33D-15 for    104.
 Iteration    1 A*A^-1 deviation from orthogonality  is 3.87D-15 for   3449   2801.
 Iteration    1 A^-1*A deviation from unit magnitude is 9.55D-15 for    104.
 Iteration    1 A^-1*A deviation from orthogonality  is 4.82D-15 for   3190    251.
 Orbital symmetries:
       Occupied  (A) (A) (A) (A) (A) (A) (A) (A) (A) (A) (A) (A)
                 (A) (A) (A) (A) (A) (A) (A) (A) (A) (A) (A) (A)
                 (A) (A) (A) (A) (A) (A) (A) (A) (A) (A) (A) (A)
                 (A) (A) (A) (A) (A) (A) (A) (A) (A) (A) (A) (A)
                 (A) (A) (A) (A) (A) (A) (A) (A) (A) (A) (A) (A)
                 (A) (A) (A) (A) (A) (A) (A) (A) (A) (A) (A) (A)
                 (A) (A) (A) (A) (A) (A) (A) (A) (A) (A) (A) (A)
                 (A) (A) (A) (A) (A) (A) (A)
       Virtual   (A) (A) (A) (A) (A) (A) (A) (A) (A) (A) (A) (A)
                 (A) (A) (A) (A) (A) (A) (A) (A) (A) (A) (A) (A)
                 (A) (A) (A) (A) (A) (A) (A) (A) (A) (A) (A) (A)
                 (A) (A) (A) (A) (A) (A) (A) (A) (A) (A) (A) (A)
                 (A) (A) (A) (A) (A) (A) (A) (A) (A) (A) (A) (A)
                 (A) (A) (A) (A) (A) (A) (A) (A) (A) (A) (A) (A)
                 (A) (A) (A) (A) (A) (A) (A) (A) (A) (A) (A) (A)
                 (A) (A) (A) (A) (A) (A) (A) (A) (A) (A) (A) (A)
                 (A) (A) (A) (A) (A) (A) (A) (A) (A) (A) (A) (A)
                 (A) (A) (A) (A) (A) (A) (A) (A) (A) (A) (A) (A)
                 (A) (A) (A) (A) (A) (A) (A) (A) (A) (A) (A) (A)
                 (A) (A) (A) (A) (A) (A) (A) (A) (A) (A) (A) (A)
                 (A) (A) (A) (A) (A) (A) (A) (A) (A) (A) (A) (A)
                 (A) (A) (A) (A) (A) (A) (A) (A) (A) (A) (A) (A)
                 (A) (A) (A) (A) (A) (A) (A) (A) (A) (A) (A) (A)
                 (A) (A) (A) (A) (A) (A) (A) (A) (A) (A) (A) (A)
                 (A) (A) (A) (A) (A) (A) (A) (A) (A) (A) (A) (A)
                 (A) (A) (A) (A) (A) (A) (A) (A) (A) (A) (A) (A)
                 (A) (A) (A) (A) (A) (A) (A) (A) (A) (A) (A) (A)
                 (A) (A) (A) (A) (A) (A) (A) (A) (A) (A) (A) (A)
                 (A) (A) (A) (A) (A) (A) (A) (A) (A) (A) (A) (A)
                 (A) (A) (A) (A) (A) (A) (A) (A) (A) (A) (A) (A)
                 (A) (A) (A) (A) (A) (A) (A) (A) (A) (A) (A) (A)
                 (A) (A) (A) (A) (A) (A) (A) (A) (A) (A) (A) (A)
                 (A) (A) (A) (A) (A) (A) (A) (A) (A) (A) (A) (A)
                 (A) (A) (A) (A) (A) (A) (A) (A) (A) (A) (A) (A)
                 (A) (A) (A) (A) (A) (A) (A) (A) (A) (A) (A) (A)
                 (A) (A) (A) (A) (A) (A) (A) (A) (A) (A) (A) (A)
                 (A) (A) (A) (A) (A) (A) (A) (A) (A) (A) (A) (A)
                 (A) (A) (A) (A) (A) (A) (A) (A) (A) (A) (A) (A)
                 (A) (A) (A) (A) (A) (A) (A) (A) (A) (A) (A) (A)
                 (A) (A) (A) (A) (A) (A) (A) (A) (A) (A) (A) (A)
    20 initial guesses have been made.
 Convergence on wavefunction:    0.000001000000000
 Iteration     1 Dimension    20 NMult     0 NNew     20
 CISAX will form    20 AO SS matrices at one time.
 New state      2 was old state      3
 New state      3 was old state      2
 New state      4 was old state      8
 New state      5 was old state      7
 Iteration     2 Dimension    30 NMult    20 NNew     10
 New state      3 was old state      4
 New state      4 was old state      5
 New state      5 was old state      3
 Iteration     3 Dimension    40 NMult    30 NNew     10
 Iteration     4 Dimension    50 NMult    40 NNew     10
 Iteration     5 Dimension    60 NMult    50 NNew     10
 Iteration     6 Dimension    70 NMult    60 NNew     10
 Iteration     7 Dimension    80 NMult    70 NNew     10
 Iteration     8 Dimension    90 NMult    80 NNew     10
 Iteration     9 Dimension   100 NMult    90 NNew     10
 Iteration    10 Dimension   110 NMult   100 NNew     10
 Iteration    11 Dimension   116 NMult   110 NNew      6
 Iteration    12 Dimension   120 NMult   116 NNew      4
 Iteration    13 Dimension   124 NMult   120 NNew      4
 Iteration    14 Dimension   126 NMult   124 NNew      2
 Iteration    15 Dimension   128 NMult   126 NNew      2
 Iteration    16 Dimension   130 NMult   128 NNew      2
 Iteration    17 Dimension   132 NMult   130 NNew      2
 PCM Corrected Linear-Response:
 The state of interest is root number   2
 Excitation energy =    4.3290 eV, Total energy =  -1090.70465710    
 Recompute the excitation energies using the linear response reaction field.
 Convergence on wavefunction:    0.000001000000000
 Iteration     1 Dimension     5 NMult     0 NNew      5
 Iteration     2 Dimension    15 NMult     5 NNew     10
 Iteration     3 Dimension    25 NMult    15 NNew     10
 Iteration     4 Dimension    35 NMult    25 NNew     10
 Iteration     5 Dimension    45 NMult    35 NNew     10
 Iteration     6 Dimension    55 NMult    45 NNew     10
 Iteration     7 Dimension    65 NMult    55 NNew     10
 Iteration     8 Dimension    75 NMult    65 NNew     10
 Iteration     9 Dimension    85 NMult    75 NNew     10
 Iteration    10 Dimension    95 NMult    85 NNew     10
 Iteration    11 Dimension   103 NMult    95 NNew      8
 Iteration    12 Dimension   107 NMult   103 NNew      4
 Iteration    13 Dimension   109 NMult   107 NNew      2
 Iteration    14 Dimension   111 NMult   109 NNew      2
 Iteration    15 Dimension   113 NMult   111 NNew      2
 Iteration    16 Dimension   115 NMult   113 NNew      2
 ***********************************************************************
 Excited states from <AA,BB:AA,BB> singles matrix:
 ***********************************************************************
 
 Ground to excited state transition densities written to RWF  633
 Ground to excited state transition electric dipole moments (Au):
       state          X           Y           Z        Dip. S.      Osc.
         1         2.4062     -0.3680      0.1028      5.9356      0.4874
         2        -0.0708      0.1821      0.0066      0.0382      0.0040
         3        -0.0894     -0.0690     -0.0547      0.0157      0.0018
         4        -0.5196     -0.4609     -0.0746      0.4880      0.0573
         5        -0.1574      1.5809      0.0591      2.5275      0.3131
 Ground to excited state transition velocity dipole moments (Au):
       state          X           Y           Z        Dip. S.      Osc.
         1        -0.3014      0.0565     -0.0125      0.0942      0.5097
         2         0.0124     -0.0333     -0.0010      0.0013      0.0053
         3         0.0131      0.0134      0.0096      0.0004      0.0017
         4         0.0826      0.0870      0.0134      0.0146      0.0552
         5         0.0261     -0.2967     -0.0092      0.0888      0.3186
 Ground to excited state transition magnetic dipole moments (Au):
       state          X           Y           Z
         1         0.0662      0.3220     -0.1553
         2        -0.0708     -0.0929      0.9859
         3         0.1923     -0.6893      0.4026
         4        -0.0209     -0.0124      1.6275
         5        -0.2413     -0.0835      0.3333
 Ground to excited state transition velocity quadrupole moments (Au):
       state          XX          YY          ZZ          XY          XZ          YZ
         1        -0.5545      0.1684     -0.0128      0.2200      0.0993     -0.0167
         2         0.0579      0.1249      0.0077     -0.2907     -0.0154      0.0252
         3         0.2566     -0.0233     -0.0086     -0.0835      0.0082     -0.0064
         4         0.7456      0.0543      0.0008     -0.3488      0.0126     -0.0976
         5         1.4131     -0.6921      0.0418     -0.8094      0.0616      0.1601
 <0|del|b> * <b|rxdel|0> + <0|del|b> * <b|delr+rdel|0>
 Rotatory Strengths (R) in cgs (10**-40 erg-esu-cm/Gauss)
       state          XX          YY          ZZ    R(velocity)    E-M Angle
         1        33.8042    -29.3934     -3.3637      0.3490       89.91
         2         4.2682     -3.9910      5.3885      1.8886       87.94
         3       -12.6983     14.3594    -13.1757     -3.8382       99.48
         4        30.1507     33.6690     12.7752     25.5316       84.43
         5        90.3003    -24.1172     -7.6022     19.5270       82.93
 1/2[<0|r|b>*<b|rxdel|0> + (<0|rxdel|b>*<b|r|0>)*]
 Rotatory Strengths (R) in cgs (10**-40 erg-esu-cm/Gauss)
       state          XX          YY          ZZ     R(length)
         1      -112.7220     83.7878     11.2852     -5.8830
         2        -3.5459     11.9636     -4.5777      1.2800
         3        12.1559    -33.6102     15.5689     -1.9618
         4        -7.6837     -4.0252     85.9000     24.7304
         5       -26.8596     93.3210    -13.9262     17.5117
  1/2[<0|del|b>*<b|r|0> + (<0|r|b>*<b|del|0>)*] (Au)
       state          X           Y           Z        Dip. S.   Osc.(frdel)
         1        -0.7252     -0.0208     -0.0013      0.7473      0.4982
         2        -0.0009     -0.0061     -0.0000      0.0069      0.0046
         3        -0.0012     -0.0009     -0.0005      0.0026      0.0017
         4        -0.0429     -0.0401     -0.0010      0.0841      0.0560
         5        -0.0041     -0.4690     -0.0005      0.4737      0.3158

 Excitation energies and oscillator strengths:
 
 Excited State   1:      Singlet-A      3.3519 eV  369.89 nm  f=0.4874  <S**2>=0.000
      91 -> 92         0.69588
 
 Excited State   2:      Singlet-A      4.3155 eV  287.30 nm  f=0.0040  <S**2>=0.000
      89 -> 92         0.44375
      91 -> 93         0.51273
 This state for optimization and/or second-order correction.
 Total Energy, E(TD-HF/TD-DFT) =  -1090.70515485    
 Copying the excited state density for this state as the 1-particle RhoCI density.
 
 Excited State   3:      Singlet-A      4.7494 eV  261.05 nm  f=0.0018  <S**2>=0.000
      85 -> 92        -0.19161
      85 -> 94        -0.17575
      86 -> 92         0.32090
      86 -> 95         0.12875
      87 -> 92         0.47502
      87 -> 95         0.16241
      88 -> 92         0.15052
 
 Excited State   4:      Singlet-A      4.7913 eV  258.77 nm  f=0.0573  <S**2>=0.000
      87 -> 92        -0.20348
      88 -> 92         0.39238
      89 -> 92         0.19010
      91 -> 93        -0.26124
      91 -> 94         0.39285
 
 Excited State   5:      Singlet-A      5.0557 eV  245.24 nm  f=0.3131  <S**2>=0.000
      86 -> 92        -0.10065
      88 -> 92         0.25669
      89 -> 92        -0.43471
      90 -> 92        -0.29534
      91 -> 93         0.32917
      91 -> 94         0.14253
 SavETr:  write IOETrn=   770 NScale= 10 NData=  16 NLR=1 NState=    5 LETran=     100.
 NEqPCM:  Using equilibrium solvation (IEInf=0, Eps=  24.8520, EpsInf=   1.8526)
          Differentiating once with respect to electric field.
                with respect to dipole field.
          Electric field/nuclear overlap derivatives assumed to be zero.
          There are     1 degrees of freedom in the 1st order CPHF.  IDoFFX=0 NUNeed=     1.
 LinEq1:  Iter=  0 NonCon=     1 RMS=1.05D-03 Max=4.88D-02 NDo=     1
 AX will form     1 AO Fock derivatives at one time.
 LinEq1:  Iter=  1 NonCon=     1 RMS=4.93D-04 Max=3.65D-02 NDo=     1
 LinEq1:  Iter=  2 NonCon=     1 RMS=1.82D-04 Max=1.25D-02 NDo=     1
 LinEq1:  Iter=  3 NonCon=     1 RMS=8.01D-05 Max=5.09D-03 NDo=     1
 LinEq1:  Iter=  4 NonCon=     1 RMS=3.63D-05 Max=2.05D-03 NDo=     1
 LinEq1:  Iter=  5 NonCon=     1 RMS=2.12D-05 Max=1.17D-03 NDo=     1
 LinEq1:  Iter=  6 NonCon=     1 RMS=1.08D-05 Max=5.78D-04 NDo=     1
 LinEq1:  Iter=  7 NonCon=     1 RMS=6.21D-06 Max=3.46D-04 NDo=     1
 LinEq1:  Iter=  8 NonCon=     1 RMS=2.56D-06 Max=1.10D-04 NDo=     1
 LinEq1:  Iter=  9 NonCon=     1 RMS=1.45D-06 Max=6.35D-05 NDo=     1
 LinEq1:  Iter= 10 NonCon=     1 RMS=5.78D-07 Max=2.13D-05 NDo=     1
 LinEq1:  Iter= 11 NonCon=     1 RMS=3.24D-07 Max=1.35D-05 NDo=     1
 LinEq1:  Iter= 12 NonCon=     1 RMS=1.41D-07 Max=6.34D-06 NDo=     1
 LinEq1:  Iter= 13 NonCon=     1 RMS=6.40D-08 Max=3.42D-06 NDo=     1
 LinEq1:  Iter= 14 NonCon=     1 RMS=2.71D-08 Max=1.40D-06 NDo=     1
 LinEq1:  Iter= 15 NonCon=     1 RMS=1.13D-08 Max=5.63D-07 NDo=     1
 LinEq1:  Iter= 16 NonCon=     1 RMS=5.31D-09 Max=2.94D-07 NDo=     1
 LinEq1:  Iter= 17 NonCon=     1 RMS=1.42D-09 Max=4.81D-08 NDo=     1
 LinEq1:  Iter= 18 NonCon=     1 RMS=5.19D-10 Max=1.68D-08 NDo=     1
 LinEq1:  Iter= 19 NonCon=     1 RMS=2.36D-10 Max=1.33D-08 NDo=     1
 LinEq1:  Iter= 20 NonCon=     1 RMS=6.94D-11 Max=3.84D-09 NDo=     1
 LinEq1:  Iter= 21 NonCon=     1 RMS=3.42D-11 Max=2.21D-09 NDo=     1
 LinEq1:  Iter= 22 NonCon=     1 RMS=1.43D-11 Max=1.17D-09 NDo=     1
 LinEq1:  Iter= 23 NonCon=     0 RMS=5.69D-12 Max=2.37D-10 NDo=     1
 Linear equations converged to 1.000D-10 1.000D-09 after    23 iterations.
 PCM Corrected Linear-Response - Non-equilibrium solvation:
 Corrected transition energy               =    4.3232          eV
 Total energy after correction             = -1090.70487156     a.u.
 End of Minotr F.D. properties file   721 does not exist.
 End of Minotr F.D. properties file   722 does not exist.
 End of Minotr F.D. properties file   788 does not exist.

 **********************************************************************

            Population analysis using the CI density.

 **********************************************************************

 Orbital symmetries:
       Occupied  (A) (A) (A) (A) (A) (A) (A) (A) (A) (A) (A) (A)
                 (A) (A) (A) (A) (A) (A) (A) (A) (A) (A) (A) (A)
                 (A) (A) (A) (A) (A) (A) (A) (A) (A) (A) (A) (A)
                 (A) (A) (A) (A) (A) (A) (A) (A) (A) (A) (A) (A)
                 (A) (A) (A) (A) (A) (A) (A) (A) (A) (A) (A) (A)
                 (A) (A) (A) (A) (A) (A) (A) (A) (A) (A) (A) (A)
                 (A) (A) (A) (A) (A) (A) (A) (A) (A) (A) (A) (A)
                 (A) (A) (A) (A) (A) (A) (A)
       Virtual   (A) (A) (A) (A) (A) (A) (A) (A) (A) (A) (A) (A)
                 (A) (A) (A) (A) (A) (A) (A) (A) (A) (A) (A) (A)
                 (A) (A) (A) (A) (A) (A) (A) (A) (A) (A) (A) (A)
                 (A) (A) (A) (A) (A) (A) (A) (A) (A) (A) (A) (A)
                 (A) (A) (A) (A) (A) (A) (A) (A) (A) (A) (A) (A)
                 (A) (A) (A) (A) (A) (A) (A) (A) (A) (A) (A) (A)
                 (A) (A) (A) (A) (A) (A) (A) (A) (A) (A) (A) (A)
                 (A) (A) (A) (A) (A) (A) (A) (A) (A) (A) (A) (A)
                 (A) (A) (A) (A) (A) (A) (A) (A) (A) (A) (A) (A)
                 (A) (A) (A) (A) (A) (A) (A) (A) (A) (A) (A) (A)
                 (A) (A) (A) (A) (A) (A) (A) (A) (A) (A) (A) (A)
                 (A) (A) (A) (A) (A) (A) (A) (A) (A) (A) (A) (A)
                 (A) (A) (A) (A) (A) (A) (A) (A) (A) (A) (A) (A)
                 (A) (A) (A) (A) (A) (A) (A) (A) (A) (A) (A) (A)
                 (A) (A) (A) (A) (A) (A) (A) (A) (A) (A) (A) (A)
                 (A) (A) (A) (A) (A) (A) (A) (A) (A) (A) (A) (A)
                 (A) (A) (A) (A) (A) (A) (A) (A) (A) (A) (A) (A)
                 (A) (A) (A) (A) (A) (A) (A) (A) (A) (A) (A) (A)
                 (A) (A) (A) (A) (A) (A) (A) (A) (A) (A) (A) (A)
                 (A) (A) (A) (A) (A) (A) (A) (A) (A) (A) (A) (A)
                 (A) (A) (A) (A) (A) (A) (A) (A) (A) (A) (A) (A)
                 (A) (A) (A) (A) (A) (A) (A) (A) (A) (A) (A) (A)
                 (A) (A) (A) (A) (A) (A) (A) (A) (A) (A) (A) (A)
                 (A) (A) (A) (A) (A) (A) (A) (A) (A) (A) (A) (A)
                 (A) (A) (A) (A) (A) (A) (A) (A) (A) (A) (A) (A)
                 (A) (A) (A) (A) (A) (A) (A) (A) (A) (A) (A) (A)
                 (A) (A) (A) (A) (A) (A) (A) (A) (A) (A) (A) (A)
                 (A) (A) (A) (A) (A) (A) (A) (A) (A) (A) (A) (A)
                 (A) (A) (A) (A) (A) (A) (A) (A) (A) (A) (A) (A)
                 (A) (A) (A) (A) (A) (A) (A) (A) (A) (A) (A) (A)
                 (A) (A) (A) (A) (A) (A) (A) (A) (A) (A) (A) (A)
                 (A) (A) (A) (A) (A) (A) (A) (A) (A) (A) (A) (A)
 The electronic state is 1-A.
 Alpha  occ. eigenvalues --  -19.24288 -19.23783 -14.49456 -14.46817 -14.43866
 Alpha  occ. eigenvalues --  -10.42040 -10.41628 -10.36699 -10.32869 -10.32815
 Alpha  occ. eigenvalues --  -10.32367 -10.32283 -10.32197 -10.31994 -10.31977
 Alpha  occ. eigenvalues --  -10.31966 -10.31799 -10.30982 -10.30949 -10.30925
 Alpha  occ. eigenvalues --  -10.30194 -10.29754 -10.28635 -10.28593 -10.27982
 Alpha  occ. eigenvalues --   -1.15815  -1.13598  -1.05410  -1.03402  -1.01606
 Alpha  occ. eigenvalues --   -0.98096  -0.92844  -0.90016  -0.87872  -0.85174
 Alpha  occ. eigenvalues --   -0.84694  -0.82483  -0.81083  -0.79145  -0.76160
 Alpha  occ. eigenvalues --   -0.75272  -0.74267  -0.72187  -0.71128  -0.69831
 Alpha  occ. eigenvalues --   -0.66429  -0.66385  -0.65738  -0.62779  -0.60835
 Alpha  occ. eigenvalues --   -0.59990  -0.58694  -0.57503  -0.56785  -0.56032
 Alpha  occ. eigenvalues --   -0.55934  -0.55395  -0.54364  -0.53521  -0.53380
 Alpha  occ. eigenvalues --   -0.52852  -0.52507  -0.51773  -0.50971  -0.50539
 Alpha  occ. eigenvalues --   -0.49397  -0.48934  -0.48766  -0.48295  -0.48083
 Alpha  occ. eigenvalues --   -0.47059  -0.46574  -0.46206  -0.44753  -0.44565
 Alpha  occ. eigenvalues --   -0.44134  -0.43186  -0.42866  -0.42648  -0.42332
 Alpha  occ. eigenvalues --   -0.42021  -0.41119  -0.39871  -0.39584  -0.37020
 Alpha  occ. eigenvalues --   -0.35440  -0.35333  -0.34023  -0.33719  -0.30034
 Alpha  occ. eigenvalues --   -0.27057
 Alpha virt. eigenvalues --   -0.01937   0.04160   0.05045   0.08792   0.13606
 Alpha virt. eigenvalues --    0.14982   0.15482   0.16535   0.17189   0.17825
 Alpha virt. eigenvalues --    0.17937   0.18198   0.18330   0.18405   0.19099
 Alpha virt. eigenvalues --    0.19210   0.20222   0.20906   0.21452   0.22277
 Alpha virt. eigenvalues --    0.22601   0.22821   0.23507   0.23652   0.23944
 Alpha virt. eigenvalues --    0.24784   0.24948   0.25097   0.25644   0.26029
 Alpha virt. eigenvalues --    0.26741   0.27321   0.28109   0.28506   0.28953
 Alpha virt. eigenvalues --    0.30336   0.31127   0.31531   0.32397   0.32726
 Alpha virt. eigenvalues --    0.33202   0.33432   0.33645   0.33918   0.34071
 Alpha virt. eigenvalues --    0.34428   0.35566   0.35859   0.36976   0.37826
 Alpha virt. eigenvalues --    0.38685   0.39613   0.41542   0.42351   0.43495
 Alpha virt. eigenvalues --    0.44236   0.44981   0.47530   0.49617   0.49990
 Alpha virt. eigenvalues --    0.50347   0.50957   0.51356   0.51723   0.52569
 Alpha virt. eigenvalues --    0.52659   0.53214   0.53623   0.53877   0.54325
 Alpha virt. eigenvalues --    0.54475   0.54752   0.55323   0.55975   0.56335
 Alpha virt. eigenvalues --    0.57360   0.58177   0.58606   0.59301   0.59901
 Alpha virt. eigenvalues --    0.61869   0.62538   0.63211   0.63911   0.64727
 Alpha virt. eigenvalues --    0.65604   0.66266   0.67821   0.69017   0.69351
 Alpha virt. eigenvalues --    0.70134   0.70587   0.70904   0.71770   0.72178
 Alpha virt. eigenvalues --    0.72638   0.73071   0.73180   0.73316   0.73636
 Alpha virt. eigenvalues --    0.73815   0.74422   0.74680   0.74819   0.75102
 Alpha virt. eigenvalues --    0.75281   0.75726   0.76179   0.76484   0.77060
 Alpha virt. eigenvalues --    0.77209   0.77335   0.77453   0.77720   0.77969
 Alpha virt. eigenvalues --    0.78574   0.78813   0.79233   0.79495   0.79720
 Alpha virt. eigenvalues --    0.79923   0.80674   0.81009   0.81166   0.81842
 Alpha virt. eigenvalues --    0.82078   0.82428   0.82750   0.83102   0.83425
 Alpha virt. eigenvalues --    0.84199   0.84755   0.85107   0.87684   0.88392
 Alpha virt. eigenvalues --    0.88430   0.90427   0.91142   0.91566   0.92442
 Alpha virt. eigenvalues --    0.93391   0.94036   0.95037   0.98055   0.98267
 Alpha virt. eigenvalues --    0.98938   0.99692   1.01380   1.04164   1.05355
 Alpha virt. eigenvalues --    1.07339   1.08608   1.09905   1.10484   1.10950
 Alpha virt. eigenvalues --    1.11885   1.11936   1.14692   1.15634   1.16369
 Alpha virt. eigenvalues --    1.18370   1.18480   1.19855   1.20540   1.22361
 Alpha virt. eigenvalues --    1.23534   1.24743   1.26447   1.27040   1.27668
 Alpha virt. eigenvalues --    1.28341   1.28765   1.29387   1.29911   1.31236
 Alpha virt. eigenvalues --    1.31909   1.32890   1.33354   1.33686   1.34105
 Alpha virt. eigenvalues --    1.36352   1.36536   1.39178   1.39890   1.40804
 Alpha virt. eigenvalues --    1.41159   1.42280   1.42396   1.44254   1.45549
 Alpha virt. eigenvalues --    1.46448   1.46706   1.49374   1.50049   1.51668
 Alpha virt. eigenvalues --    1.52377   1.55218   1.57460   1.57887   1.58509
 Alpha virt. eigenvalues --    1.59028   1.59754   1.61276   1.61728   1.62399
 Alpha virt. eigenvalues --    1.62604   1.63089   1.63547   1.66155   1.67994
 Alpha virt. eigenvalues --    1.70725   1.74639   1.74990   1.76364   1.76573
 Alpha virt. eigenvalues --    1.78271   1.78684   1.79066   1.79808   1.81368
 Alpha virt. eigenvalues --    1.81458   1.82325   1.82576   1.83231   1.83831
 Alpha virt. eigenvalues --    1.84394   1.85008   1.85543   1.86039   1.86319
 Alpha virt. eigenvalues --    1.86524   1.86821   1.87084   1.87415   1.88080
 Alpha virt. eigenvalues --    1.88622   1.89361   1.89780   1.90148   1.90348
 Alpha virt. eigenvalues --    1.91334   1.91955   1.93172   1.93640   1.94290
 Alpha virt. eigenvalues --    1.94654   1.95287   1.95624   1.96096   1.96445
 Alpha virt. eigenvalues --    1.97594   1.98022   1.98384   1.99665   2.00080
 Alpha virt. eigenvalues --    2.01580   2.01803   2.01971   2.02603   2.03248
 Alpha virt. eigenvalues --    2.03519   2.03784   2.04910   2.05843   2.06170
 Alpha virt. eigenvalues --    2.06510   2.07691   2.09535   2.10624   2.10959
 Alpha virt. eigenvalues --    2.11438   2.12727   2.13046   2.15217   2.15938
 Alpha virt. eigenvalues --    2.17309   2.17759   2.18338   2.19414   2.20514
 Alpha virt. eigenvalues --    2.21672   2.22393   2.23200   2.24947   2.26154
 Alpha virt. eigenvalues --    2.28498   2.29948   2.31315   2.31971   2.32243
 Alpha virt. eigenvalues --    2.32640   2.33317   2.34630   2.34841   2.36454
 Alpha virt. eigenvalues --    2.36836   2.38588   2.39616   2.40328   2.41176
 Alpha virt. eigenvalues --    2.41453   2.44510   2.45128   2.45894   2.46706
 Alpha virt. eigenvalues --    2.49508   2.50389   2.50810   2.51315   2.52767
 Alpha virt. eigenvalues --    2.53410   2.53873   2.55052   2.56724   2.57716
 Alpha virt. eigenvalues --    2.57991   2.58564   2.59821   2.61932   2.62713
 Alpha virt. eigenvalues --    2.64889   2.65832   2.66928   2.67927   2.68604
 Alpha virt. eigenvalues --    2.69546   2.71294   2.72076   2.72478   2.73151
 Alpha virt. eigenvalues --    2.74597   2.75526   2.76706   2.77981   2.78932
 Alpha virt. eigenvalues --    2.79629   2.80951   2.81371   2.82184   2.83642
 Alpha virt. eigenvalues --    2.83979   2.85737   2.88013   2.88921   2.90491
 Alpha virt. eigenvalues --    2.92515   2.93501   2.93705   2.95973   2.96806
 Alpha virt. eigenvalues --    2.97054   2.97587   2.98431   2.99496   2.99546
 Alpha virt. eigenvalues --    3.02014   3.03316   3.03710   3.06246   3.08430
 Alpha virt. eigenvalues --    3.09404   3.09776   3.11436   3.11685   3.14477
 Alpha virt. eigenvalues --    3.17323   3.18017   3.18609   3.19893   3.21330
 Alpha virt. eigenvalues --    3.21722   3.22916   3.25283   3.25445   3.27847
 Alpha virt. eigenvalues --    3.32217   3.43749   3.48722   3.54046   3.61560
 Alpha virt. eigenvalues --    3.64670   3.71217   3.79076   3.80395
          Condensed to atoms (all electrons):
               1          2          3          4          5          6
     1  C    4.493546   0.402709   0.402218   0.390187  -0.000000  -0.000000
     2  H    0.402709   0.618546  -0.017413  -0.032842  -0.000003  -0.000000
     3  H    0.402218  -0.017413   0.615654  -0.031429  -0.000007  -0.000000
     4  H    0.390187  -0.032842  -0.031429   0.691462   0.000001   0.000000
     5  C   -0.000000  -0.000003  -0.000007   0.000001   5.670456   0.181828
     6  C   -0.000000  -0.000000  -0.000000   0.000000   0.181828   5.375664
     7  C    0.000000   0.000000   0.000000  -0.000000  -0.011781   0.272389
     8  C   -0.000000   0.000000   0.000000  -0.000000  -0.010912   0.298893
     9  C    0.000036   0.000002   0.000011  -0.000005   0.209794   0.011172
    10  C   -0.000002   0.000008   0.000012  -0.000002   0.263224   0.017491
    11  H    0.000082   0.000005   0.000015   0.000001  -0.057565   0.013191
    12  C    0.000001   0.000000   0.000001  -0.000000  -0.016380  -0.097693
    13  H    0.000000   0.000000   0.000000   0.000000   0.014205  -0.001767
    14  C    0.000000   0.000000   0.000000  -0.000000   0.014477  -0.060550
    15  N    0.000000  -0.000000  -0.000000   0.000000  -0.001278  -0.015702
    16  C   -0.000000  -0.000000  -0.000000   0.000000  -0.100884   0.010101
    17  H   -0.000000   0.000000   0.000000  -0.000000  -0.001128   0.012384
    18  C    0.000000   0.000001   0.000001  -0.000000   0.054627  -0.110805
    19  H   -0.000000  -0.000000  -0.000000   0.000000   0.013649  -0.000932
    20  N   -0.000049   0.000043   0.000161  -0.000058  -0.110323   0.003851
    21  H   -0.002047  -0.000594  -0.001152   0.000813  -0.028817   0.000791
    22  C    0.000000  -0.000000  -0.000000   0.000000  -0.111478   0.004973
    23  H   -0.000000  -0.000000  -0.000000   0.000000  -0.000904   0.012965
    24  C   -0.000000   0.000000   0.000000  -0.000000   0.011815  -0.063065
    25  O   -0.000000   0.000000   0.000000  -0.000000  -0.000054   0.000823
    26  O    0.000000   0.000000  -0.000000  -0.000000  -0.000054   0.000582
    27  C    0.009634  -0.000339   0.000826  -0.000690   0.008428  -0.000142
    28  H   -0.000170   0.000010  -0.000049   0.000022  -0.000822   0.000024
    29  H   -0.000203   0.000014  -0.000003  -0.000022  -0.000256   0.000004
    30  N    0.351373  -0.026756  -0.026151  -0.037380   0.000619   0.000006
    31  C   -0.049862   0.007210  -0.004051  -0.008651   0.000229   0.000001
    32  H   -0.003063  -0.000545  -0.002027   0.011293   0.000031   0.000000
    33  H   -0.006112   0.000515   0.006133  -0.003186  -0.000067  -0.000001
    34  C   -0.045784  -0.003507   0.006946  -0.006602  -0.000049  -0.000001
    35  H    0.006170   0.000525  -0.000335  -0.000696  -0.000207  -0.000012
    36  H   -0.004950   0.004672   0.000413  -0.002670  -0.000013  -0.000000
    37  H   -0.003468  -0.002671  -0.000443   0.013138   0.000008   0.000000
    38  C   -0.000000   0.000000   0.000000  -0.000000   0.000084  -0.000245
    39  H   -0.000000  -0.000000   0.000000   0.000000   0.000001  -0.000200
    40  H    0.000000  -0.000000   0.000000  -0.000000   0.000001  -0.000212
    41  C    0.000000  -0.000000  -0.000000   0.000000  -0.000004   0.000201
    42  H   -0.000000  -0.000000  -0.000000   0.000000   0.000002  -0.000024
    43  H   -0.000000  -0.000000   0.000000   0.000000   0.000002  -0.000029
    44  C   -0.000000  -0.000000  -0.000000   0.000000   0.000000   0.000001
    45  H   -0.000000  -0.000000  -0.000000   0.000000  -0.000000   0.000000
    46  H   -0.000000   0.000000  -0.000000   0.000000  -0.000000  -0.000000
    47  C    0.000000   0.000000   0.000000   0.000000  -0.000000   0.000000
    48  H    0.000000   0.000000   0.000000   0.000000  -0.000000  -0.000000
    49  H    0.000000   0.000000   0.000000   0.000000   0.000000   0.000000
    50  H    0.000000   0.000000   0.000000   0.000000   0.000000   0.000000
               7          8          9         10         11         12
     1  C    0.000000  -0.000000   0.000036  -0.000002   0.000082   0.000001
     2  H    0.000000   0.000000   0.000002   0.000008   0.000005   0.000000
     3  H    0.000000   0.000000   0.000011   0.000012   0.000015   0.000001
     4  H   -0.000000  -0.000000  -0.000005  -0.000002   0.000001  -0.000000
     5  C   -0.011781  -0.010912   0.209794   0.263224  -0.057565  -0.016380
     6  C    0.272389   0.298893   0.011172   0.017491   0.013191  -0.097693
     7  C    5.861685  -0.065361  -0.152987   0.022943  -0.000078   0.071918
     8  C   -0.065361   5.761532   0.027186  -0.139341  -0.001425  -0.003169
     9  C   -0.152987   0.027186   5.246169  -0.129131  -0.022663   0.209579
    10  C    0.022943  -0.139341  -0.129131   5.257474   0.452952   0.017085
    11  H   -0.000078  -0.001425  -0.022663   0.452952   0.621936  -0.000095
    12  C    0.071918  -0.003169   0.209579   0.017085  -0.000095   5.434740
    13  H    0.015847   0.000013  -0.072265  -0.000109   0.000009   0.472618
    14  C   -0.040090   0.207369   0.000257  -0.002778   0.000024  -0.000293
    15  N   -0.117828  -0.118461  -0.000041  -0.000029  -0.000000   0.000068
    16  C    0.209792   0.015494   0.110542  -0.003088  -0.000071   0.149882
    17  H   -0.084752  -0.000493   0.014102   0.000022   0.000000  -0.058882
    18  C   -0.003167   0.074157   0.017918   0.307127  -0.053437  -0.000279
    19  H    0.000040   0.013415  -0.000336  -0.062110  -0.011638   0.000003
    20  N   -0.000610   0.000007   0.485583  -0.001204  -0.002868  -0.091306
    21  H   -0.000157  -0.000001  -0.004236   0.003303   0.004359   0.009094
    22  C    0.015098   0.274315  -0.002970   0.073252   0.012741   0.000069
    23  H   -0.000465  -0.077525   0.000037   0.012725  -0.000214   0.000000
    24  C    0.200096  -0.037990  -0.001699   0.000187   0.000002   0.020484
    25  O    0.000126  -0.138500   0.000001  -0.000058  -0.000000  -0.000000
    26  O   -0.141551   0.000096  -0.000037   0.000001  -0.000000   0.002008
    27  C    0.000047   0.000004  -0.044242   0.000562   0.000075  -0.001916
    28  H   -0.000042   0.000000  -0.015698  -0.000037  -0.000060   0.008704
    29  H   -0.000036  -0.000000  -0.005619   0.000021   0.000041   0.003882
    30  N   -0.000000  -0.000000  -0.001523  -0.001045   0.000868  -0.000095
    31  C    0.000004  -0.000000   0.009788  -0.000060   0.000262   0.000441
    32  H   -0.000000   0.000000  -0.000376  -0.000013   0.000001  -0.000026
    33  H    0.000000   0.000000   0.000290   0.000042   0.000011  -0.000084
    34  C   -0.000000   0.000000  -0.000126   0.000049  -0.000031  -0.000019
    35  H    0.000001   0.000000   0.000343   0.000130  -0.000084  -0.000005
    36  H    0.000000   0.000000   0.000026   0.000023   0.000017   0.000003
    37  H   -0.000000  -0.000000  -0.000039  -0.000008   0.000004  -0.000006
    38  C    0.008624   0.008862  -0.000001   0.000000   0.000000   0.000000
    39  H    0.003810  -0.000271   0.000000  -0.000000   0.000000  -0.000003
    40  H   -0.000272   0.003637  -0.000000   0.000001   0.000000   0.000000
    41  C   -0.001330  -0.001352  -0.000000  -0.000000  -0.000000   0.000000
    42  H   -0.000081   0.000056   0.000000  -0.000000   0.000000  -0.000001
    43  H    0.000058   0.000002  -0.000000   0.000000   0.000000  -0.000000
    44  C   -0.000003  -0.000003   0.000000   0.000000   0.000000   0.000000
    45  H    0.000000  -0.000003   0.000000  -0.000000  -0.000000  -0.000000
    46  H   -0.000003   0.000000  -0.000000   0.000000  -0.000000   0.000000
    47  C   -0.000000  -0.000000  -0.000000  -0.000000  -0.000000  -0.000000
    48  H    0.000000   0.000000   0.000000   0.000000   0.000000   0.000000
    49  H   -0.000000  -0.000000  -0.000000  -0.000000  -0.000000   0.000000
    50  H   -0.000000  -0.000000  -0.000000  -0.000000   0.000000   0.000000
              13         14         15         16         17         18
     1  C    0.000000   0.000000   0.000000  -0.000000  -0.000000   0.000000
     2  H    0.000000   0.000000  -0.000000  -0.000000   0.000000   0.000001
     3  H    0.000000   0.000000  -0.000000  -0.000000   0.000000   0.000001
     4  H    0.000000  -0.000000   0.000000   0.000000  -0.000000  -0.000000
     5  C    0.014205   0.014477  -0.001278  -0.100884  -0.001128   0.054627
     6  C   -0.001767  -0.060550  -0.015702   0.010101   0.012384  -0.110805
     7  C    0.015847  -0.040090  -0.117828   0.209792  -0.084752  -0.003167
     8  C    0.000013   0.207369  -0.118461   0.015494  -0.000493   0.074157
     9  C   -0.072265   0.000257  -0.000041   0.110542   0.014102   0.017918
    10  C   -0.000109  -0.002778  -0.000029  -0.003088   0.000022   0.307127
    11  H    0.000009   0.000024  -0.000000  -0.000071   0.000000  -0.053437
    12  C    0.472618  -0.000293   0.000068   0.149882  -0.058882  -0.000279
    13  H    0.620514   0.000001   0.000000  -0.071245  -0.011492   0.000001
    14  C    0.000001   4.674373   0.319207   0.000785   0.000055   0.020100
    15  N    0.000000   0.319207   7.015248   0.010369   0.001036   0.000027
    16  C   -0.071245   0.000785   0.010369   5.306754   0.465784   0.000095
    17  H   -0.011492   0.000055   0.001036   0.465784   0.622400   0.000001
    18  C    0.000001   0.020100   0.000027   0.000095   0.000001   5.164063
    19  H   -0.000000  -0.000359   0.000001  -0.000000   0.000000   0.457447
    20  N   -0.015351   0.000001  -0.000000   0.007311  -0.000081   0.000956
    21  H   -0.000101   0.000000  -0.000000   0.000102   0.000004  -0.001132
    22  C    0.000000  -0.073954   0.009558  -0.000328   0.000002   0.169233
    23  H    0.000000  -0.013798   0.001056   0.000001  -0.000000  -0.062894
    24  C   -0.000361  -0.034101   0.314391  -0.073295  -0.012857  -0.000272
    25  O   -0.000000   0.758046  -0.107137   0.000008   0.000000   0.001783
    26  O   -0.000021  -0.000610  -0.108752   0.019994   0.014447  -0.000000
    27  C    0.007519  -0.000000   0.000000   0.000250  -0.000023   0.000011
    28  H   -0.000434   0.000000   0.000000   0.000939   0.000012   0.000001
    29  H   -0.000782   0.000000   0.000000   0.000089   0.000012   0.000003
    30  N   -0.000008  -0.000000   0.000000   0.000001  -0.000000  -0.000027
    31  C    0.000585   0.000000   0.000000  -0.000049  -0.000000   0.000001
    32  H    0.000001  -0.000000   0.000000   0.000001  -0.000000  -0.000000
    33  H   -0.000007   0.000000  -0.000000  -0.000002   0.000000   0.000002
    34  C   -0.000009   0.000000  -0.000000   0.000001   0.000000   0.000002
    35  H   -0.000001   0.000000  -0.000000  -0.000000  -0.000000   0.000006
    36  H    0.000000   0.000000  -0.000000  -0.000000   0.000000   0.000002
    37  H   -0.000001  -0.000000   0.000000   0.000000  -0.000000  -0.000000
    38  C   -0.000000  -0.021926   0.222079  -0.000380  -0.000043   0.000000
    39  H   -0.000000   0.005799  -0.021830   0.000010  -0.000008   0.000000
    40  H    0.000000  -0.010294  -0.022058   0.000007  -0.000001  -0.000003
    41  C    0.000000  -0.005831  -0.024854   0.000022   0.000007   0.000000
    42  H    0.000000  -0.001135  -0.008784  -0.000015  -0.000012  -0.000000
    43  H    0.000000   0.006567  -0.009088  -0.000002   0.000000  -0.000001
    44  C   -0.000000  -0.000050   0.004409  -0.000000   0.000000   0.000000
    45  H    0.000000  -0.000098   0.000106   0.000000   0.000000   0.000000
    46  H    0.000000   0.000052   0.000105   0.000000  -0.000000  -0.000000
    47  C    0.000000  -0.000013  -0.000145   0.000000   0.000000  -0.000000
    48  H   -0.000000   0.000000   0.000003   0.000000   0.000000   0.000000
    49  H   -0.000000  -0.000000   0.000000  -0.000000   0.000000   0.000000
    50  H   -0.000000  -0.000003   0.000001  -0.000000  -0.000000   0.000000
              19         20         21         22         23         24
     1  C   -0.000000  -0.000049  -0.002047   0.000000  -0.000000  -0.000000
     2  H   -0.000000   0.000043  -0.000594  -0.000000  -0.000000   0.000000
     3  H   -0.000000   0.000161  -0.001152  -0.000000  -0.000000   0.000000
     4  H    0.000000  -0.000058   0.000813   0.000000   0.000000  -0.000000
     5  C    0.013649  -0.110323  -0.028817  -0.111478  -0.000904   0.011815
     6  C   -0.000932   0.003851   0.000791   0.004973   0.012965  -0.063065
     7  C    0.000040  -0.000610  -0.000157   0.015098  -0.000465   0.200096
     8  C    0.013415   0.000007  -0.000001   0.274315  -0.077525  -0.037990
     9  C   -0.000336   0.485583  -0.004236  -0.002970   0.000037  -0.001699
    10  C   -0.062110  -0.001204   0.003303   0.073252   0.012725   0.000187
    11  H   -0.011638  -0.002868   0.004359   0.012741  -0.000214   0.000002
    12  C    0.000003  -0.091306   0.009094   0.000069   0.000000   0.020484
    13  H   -0.000000  -0.015351  -0.000101   0.000000   0.000000  -0.000361
    14  C   -0.000359   0.000001   0.000000  -0.073954  -0.013798  -0.034101
    15  N    0.000001  -0.000000  -0.000000   0.009558   0.001056   0.314391
    16  C   -0.000000   0.007311   0.000102  -0.000328   0.000001  -0.073295
    17  H    0.000000  -0.000081   0.000004   0.000002  -0.000000  -0.012857
    18  C    0.457447   0.000956  -0.001132   0.169233  -0.062894  -0.000272
    19  H    0.620010   0.000004   0.000030  -0.070574  -0.009584   0.000001
    20  N    0.000004   6.326101   0.351977  -0.000056   0.000000   0.000011
    21  H    0.000030   0.351977   0.517622   0.000038   0.000000  -0.000001
    22  C   -0.070574  -0.000056   0.000038   5.295896   0.462443   0.000906
    23  H   -0.009584   0.000000   0.000000   0.462443   0.624846   0.000060
    24  C    0.000001   0.000011  -0.000001   0.000906   0.000060   4.680790
    25  O   -0.000012   0.000000   0.000000   0.017896   0.015226  -0.000607
    26  O    0.000000  -0.000000  -0.000000   0.000007   0.000000   0.762911
    27  C   -0.000000   0.324457  -0.055464   0.000001   0.000000   0.000000
    28  H    0.000000  -0.015610   0.005784  -0.000000   0.000000   0.000000
    29  H   -0.000000  -0.035946   0.000644  -0.000000   0.000000   0.000000
    30  N   -0.000000  -0.016535   0.062000   0.000000   0.000000  -0.000000
    31  C   -0.000000  -0.044114  -0.020318   0.000000  -0.000000   0.000000
    32  H    0.000000   0.004311   0.003503   0.000000   0.000000  -0.000000
    33  H   -0.000000  -0.001229  -0.002552  -0.000000  -0.000000   0.000000
    34  C   -0.000000  -0.001719  -0.002060  -0.000000   0.000000   0.000000
    35  H    0.000000   0.002215  -0.003061  -0.000000  -0.000000   0.000000
    36  H   -0.000000   0.000118  -0.001086  -0.000000  -0.000000   0.000000
    37  H   -0.000000   0.000085   0.001466   0.000000   0.000000  -0.000000
    38  C   -0.000000   0.000000   0.000000  -0.000367  -0.000046  -0.021395
    39  H    0.000000   0.000000   0.000000   0.000007  -0.000001  -0.010531
    40  H   -0.000000  -0.000000   0.000000   0.000012  -0.000006   0.005632
    41  C    0.000000   0.000000  -0.000000   0.000022   0.000007  -0.005472
    42  H   -0.000000  -0.000000   0.000000  -0.000002   0.000000   0.006434
    43  H   -0.000000  -0.000000  -0.000000  -0.000016  -0.000013  -0.001138
    44  C   -0.000000  -0.000000   0.000000  -0.000000   0.000000  -0.000052
    45  H    0.000000   0.000000   0.000000   0.000000  -0.000000   0.000050
    46  H    0.000000  -0.000000  -0.000000   0.000000   0.000000  -0.000094
    47  C    0.000000   0.000000  -0.000000   0.000000   0.000000  -0.000012
    48  H   -0.000000   0.000000   0.000000   0.000000   0.000000   0.000000
    49  H   -0.000000   0.000000  -0.000000  -0.000000  -0.000000  -0.000003
    50  H    0.000000  -0.000000  -0.000000  -0.000000   0.000000  -0.000000
              25         26         27         28         29         30
     1  C   -0.000000   0.000000   0.009634  -0.000170  -0.000203   0.351373
     2  H    0.000000   0.000000  -0.000339   0.000010   0.000014  -0.026756
     3  H    0.000000  -0.000000   0.000826  -0.000049  -0.000003  -0.026151
     4  H   -0.000000  -0.000000  -0.000690   0.000022  -0.000022  -0.037380
     5  C   -0.000054  -0.000054   0.008428  -0.000822  -0.000256   0.000619
     6  C    0.000823   0.000582  -0.000142   0.000024   0.000004   0.000006
     7  C    0.000126  -0.141551   0.000047  -0.000042  -0.000036  -0.000000
     8  C   -0.138500   0.000096   0.000004   0.000000  -0.000000  -0.000000
     9  C    0.000001  -0.000037  -0.044242  -0.015698  -0.005619  -0.001523
    10  C   -0.000058   0.000001   0.000562  -0.000037   0.000021  -0.001045
    11  H   -0.000000  -0.000000   0.000075  -0.000060   0.000041   0.000868
    12  C   -0.000000   0.002008  -0.001916   0.008704   0.003882  -0.000095
    13  H   -0.000000  -0.000021   0.007519  -0.000434  -0.000782  -0.000008
    14  C    0.758046  -0.000610  -0.000000   0.000000   0.000000  -0.000000
    15  N   -0.107137  -0.108752   0.000000   0.000000   0.000000   0.000000
    16  C    0.000008   0.019994   0.000250   0.000939   0.000089   0.000001
    17  H    0.000000   0.014447  -0.000023   0.000012   0.000012  -0.000000
    18  C    0.001783  -0.000000   0.000011   0.000001   0.000003  -0.000027
    19  H   -0.000012   0.000000  -0.000000   0.000000  -0.000000  -0.000000
    20  N    0.000000  -0.000000   0.324457  -0.015610  -0.035946  -0.016535
    21  H    0.000000  -0.000000  -0.055464   0.005784   0.000644   0.062000
    22  C    0.017896   0.000007   0.000001  -0.000000  -0.000000   0.000000
    23  H    0.015226   0.000000   0.000000   0.000000   0.000000   0.000000
    24  C   -0.000607   0.762911   0.000000   0.000000   0.000000  -0.000000
    25  O    7.749224  -0.000022   0.000000   0.000000   0.000000  -0.000000
    26  O   -0.000022   7.745817   0.000000   0.000000   0.000000  -0.000000
    27  C    0.000000   0.000000   4.633406   0.389717   0.384871  -0.075449
    28  H    0.000000   0.000000   0.389717   0.608400  -0.034160   0.004685
    29  H    0.000000   0.000000   0.384871  -0.034160   0.637164  -0.006175
    30  N   -0.000000  -0.000000  -0.075449   0.004685  -0.006175   6.716736
    31  C    0.000000   0.000000   0.382629  -0.015492  -0.009456   0.337100
    32  H    0.000000  -0.000000  -0.034792  -0.000118  -0.006379  -0.032032
    33  H   -0.000000  -0.000000  -0.014437  -0.011691   0.007094  -0.032702
    34  C   -0.000000  -0.000000   0.001900   0.000049   0.002306   0.330092
    35  H   -0.000000  -0.000000   0.013672   0.000212  -0.002262  -0.027231
    36  H    0.000000  -0.000000   0.000016  -0.000000  -0.000202  -0.024855
    37  H   -0.000000   0.000000  -0.006603   0.000081   0.000373  -0.039097
    38  C    0.003696   0.003305  -0.000000   0.000000   0.000000  -0.000000
    39  H    0.000525   0.017911  -0.000000   0.000000  -0.000000  -0.000000
    40  H    0.017435   0.000520  -0.000000  -0.000000   0.000000  -0.000000
    41  C   -0.006557  -0.006322   0.000000   0.000000  -0.000000   0.000000
    42  H    0.000112   0.006610  -0.000000  -0.000000   0.000000  -0.000000
    43  H    0.006918   0.000110  -0.000000  -0.000000   0.000000  -0.000000
    44  C   -0.000178  -0.000169  -0.000000  -0.000000   0.000000  -0.000000
    45  H    0.000035  -0.000006   0.000000   0.000000  -0.000000  -0.000000
    46  H   -0.000006   0.000030  -0.000000  -0.000000   0.000000  -0.000000
    47  C    0.000001   0.000001   0.000000   0.000000  -0.000000   0.000000
    48  H   -0.000000  -0.000000  -0.000000  -0.000000   0.000000   0.000000
    49  H    0.000000  -0.000007   0.000000   0.000000  -0.000000  -0.000000
    50  H   -0.000007   0.000000   0.000000   0.000000  -0.000000   0.000000
              31         32         33         34         35         36
     1  C   -0.049862  -0.003063  -0.006112  -0.045784   0.006170  -0.004950
     2  H    0.007210  -0.000545   0.000515  -0.003507   0.000525   0.004672
     3  H   -0.004051  -0.002027   0.006133   0.006946  -0.000335   0.000413
     4  H   -0.008651   0.011293  -0.003186  -0.006602  -0.000696  -0.002670
     5  C    0.000229   0.000031  -0.000067  -0.000049  -0.000207  -0.000013
     6  C    0.000001   0.000000  -0.000001  -0.000001  -0.000012  -0.000000
     7  C    0.000004  -0.000000   0.000000  -0.000000   0.000001   0.000000
     8  C   -0.000000   0.000000   0.000000   0.000000   0.000000   0.000000
     9  C    0.009788  -0.000376   0.000290  -0.000126   0.000343   0.000026
    10  C   -0.000060  -0.000013   0.000042   0.000049   0.000130   0.000023
    11  H    0.000262   0.000001   0.000011  -0.000031  -0.000084   0.000017
    12  C    0.000441  -0.000026  -0.000084  -0.000019  -0.000005   0.000003
    13  H    0.000585   0.000001  -0.000007  -0.000009  -0.000001   0.000000
    14  C    0.000000  -0.000000   0.000000   0.000000   0.000000   0.000000
    15  N    0.000000   0.000000  -0.000000  -0.000000  -0.000000  -0.000000
    16  C   -0.000049   0.000001  -0.000002   0.000001  -0.000000  -0.000000
    17  H   -0.000000  -0.000000   0.000000   0.000000  -0.000000   0.000000
    18  C    0.000001  -0.000000   0.000002   0.000002   0.000006   0.000002
    19  H   -0.000000   0.000000  -0.000000  -0.000000   0.000000  -0.000000
    20  N   -0.044114   0.004311  -0.001229  -0.001719   0.002215   0.000118
    21  H   -0.020318   0.003503  -0.002552  -0.002060  -0.003061  -0.001086
    22  C    0.000000   0.000000  -0.000000  -0.000000  -0.000000  -0.000000
    23  H   -0.000000   0.000000  -0.000000   0.000000  -0.000000  -0.000000
    24  C    0.000000  -0.000000   0.000000   0.000000   0.000000   0.000000
    25  O    0.000000   0.000000  -0.000000  -0.000000  -0.000000   0.000000
    26  O    0.000000  -0.000000  -0.000000  -0.000000  -0.000000  -0.000000
    27  C    0.382629  -0.034792  -0.014437   0.001900   0.013672   0.000016
    28  H   -0.015492  -0.000118  -0.011691   0.000049   0.000212  -0.000000
    29  H   -0.009456  -0.006379   0.007094   0.002306  -0.002262  -0.000202
    30  N    0.337100  -0.032032  -0.032702   0.330092  -0.027231  -0.024855
    31  C    4.617990   0.382616   0.392396  -0.054955  -0.011909   0.007735
    32  H    0.382616   0.670201  -0.027594  -0.007653  -0.003028  -0.000199
    33  H    0.392396  -0.027594   0.634404   0.007881   0.000163  -0.000347
    34  C   -0.054955  -0.007653   0.007881   4.524896   0.405880   0.400907
    35  H   -0.011909  -0.003028   0.000163   0.405880   0.613896  -0.015427
    36  H    0.007735  -0.000199  -0.000347   0.400907  -0.015427   0.613185
    37  H   -0.002293   0.012684  -0.000490   0.387986  -0.033919  -0.029621
    38  C   -0.000000  -0.000000   0.000000   0.000000   0.000000   0.000000
    39  H   -0.000000   0.000000   0.000000   0.000000   0.000000   0.000000
    40  H    0.000000  -0.000000   0.000000  -0.000000   0.000000   0.000000
    41  C   -0.000000  -0.000000  -0.000000  -0.000000   0.000000  -0.000000
    42  H    0.000000   0.000000   0.000000   0.000000  -0.000000   0.000000
    43  H    0.000000   0.000000   0.000000   0.000000  -0.000000   0.000000
    44  C    0.000000   0.000000   0.000000  -0.000000  -0.000000   0.000000
    45  H    0.000000   0.000000   0.000000  -0.000000  -0.000000  -0.000000
    46  H    0.000000   0.000000   0.000000   0.000000  -0.000000  -0.000000
    47  C   -0.000000  -0.000000  -0.000000   0.000000   0.000000  -0.000000
    48  H    0.000000   0.000000   0.000000  -0.000000  -0.000000   0.000000
    49  H   -0.000000  -0.000000  -0.000000  -0.000000   0.000000  -0.000000
    50  H   -0.000000  -0.000000  -0.000000   0.000000   0.000000  -0.000000
              37         38         39         40         41         42
     1  C   -0.003468  -0.000000  -0.000000   0.000000   0.000000  -0.000000
     2  H   -0.002671   0.000000  -0.000000  -0.000000  -0.000000  -0.000000
     3  H   -0.000443   0.000000   0.000000   0.000000  -0.000000  -0.000000
     4  H    0.013138  -0.000000   0.000000  -0.000000   0.000000   0.000000
     5  C    0.000008   0.000084   0.000001   0.000001  -0.000004   0.000002
     6  C    0.000000  -0.000245  -0.000200  -0.000212   0.000201  -0.000024
     7  C   -0.000000   0.008624   0.003810  -0.000272  -0.001330  -0.000081
     8  C   -0.000000   0.008862  -0.000271   0.003637  -0.001352   0.000056
     9  C   -0.000039  -0.000001   0.000000  -0.000000  -0.000000   0.000000
    10  C   -0.000008   0.000000  -0.000000   0.000001  -0.000000  -0.000000
    11  H    0.000004   0.000000   0.000000   0.000000  -0.000000   0.000000
    12  C   -0.000006   0.000000  -0.000003   0.000000   0.000000  -0.000001
    13  H   -0.000001  -0.000000  -0.000000   0.000000   0.000000   0.000000
    14  C   -0.000000  -0.021926   0.005799  -0.010294  -0.005831  -0.001135
    15  N    0.000000   0.222079  -0.021830  -0.022058  -0.024854  -0.008784
    16  C    0.000000  -0.000380   0.000010   0.000007   0.000022  -0.000015
    17  H   -0.000000  -0.000043  -0.000008  -0.000001   0.000007  -0.000012
    18  C   -0.000000   0.000000   0.000000  -0.000003   0.000000  -0.000000
    19  H   -0.000000  -0.000000   0.000000  -0.000000   0.000000  -0.000000
    20  N    0.000085   0.000000   0.000000  -0.000000   0.000000  -0.000000
    21  H    0.001466   0.000000   0.000000   0.000000  -0.000000   0.000000
    22  C    0.000000  -0.000367   0.000007   0.000012   0.000022  -0.000002
    23  H    0.000000  -0.000046  -0.000001  -0.000006   0.000007   0.000000
    24  C   -0.000000  -0.021395  -0.010531   0.005632  -0.005472   0.006434
    25  O   -0.000000   0.003696   0.000525   0.017435  -0.006557   0.000112
    26  O    0.000000   0.003305   0.017911   0.000520  -0.006322   0.006610
    27  C   -0.006603  -0.000000  -0.000000  -0.000000   0.000000  -0.000000
    28  H    0.000081   0.000000   0.000000  -0.000000   0.000000  -0.000000
    29  H    0.000373   0.000000  -0.000000   0.000000  -0.000000   0.000000
    30  N   -0.039097  -0.000000  -0.000000  -0.000000   0.000000  -0.000000
    31  C   -0.002293  -0.000000  -0.000000   0.000000  -0.000000   0.000000
    32  H    0.012684  -0.000000   0.000000  -0.000000  -0.000000   0.000000
    33  H   -0.000490   0.000000   0.000000   0.000000  -0.000000   0.000000
    34  C    0.387986   0.000000   0.000000  -0.000000  -0.000000   0.000000
    35  H   -0.033919   0.000000   0.000000   0.000000   0.000000  -0.000000
    36  H   -0.029621   0.000000   0.000000   0.000000  -0.000000   0.000000
    37  H    0.682619  -0.000000  -0.000000  -0.000000   0.000000  -0.000000
    38  C   -0.000000   4.590063   0.374319   0.375157   0.395171  -0.013952
    39  H   -0.000000   0.374319   0.627219  -0.021997  -0.017582  -0.010752
    40  H   -0.000000   0.375157  -0.021997   0.627884  -0.018284   0.007495
    41  C    0.000000   0.395171  -0.017582  -0.018284   4.718520   0.370619
    42  H   -0.000000  -0.013952  -0.010752   0.007495   0.370619   0.662749
    43  H   -0.000000  -0.014278   0.007455  -0.010690   0.371321  -0.029298
    44  C   -0.000000  -0.045654  -0.004142  -0.004113   0.412665  -0.021007
    45  H    0.000000  -0.006409  -0.001639   0.006769  -0.024966   0.007908
    46  H   -0.000000  -0.006368   0.006704  -0.001642  -0.024807  -0.009795
    47  C    0.000000   0.008435   0.000066   0.000066  -0.055938  -0.004340
    48  H    0.000000  -0.000423   0.000011   0.000010   0.007519  -0.000082
    49  H   -0.000000   0.000327  -0.000044   0.000020  -0.007412   0.006090
    50  H   -0.000000   0.000323   0.000020  -0.000043  -0.007414  -0.001373
              43         44         45         46         47         48
     1  C   -0.000000  -0.000000  -0.000000  -0.000000   0.000000   0.000000
     2  H   -0.000000  -0.000000  -0.000000   0.000000   0.000000   0.000000
     3  H    0.000000  -0.000000  -0.000000  -0.000000   0.000000   0.000000
     4  H    0.000000   0.000000   0.000000   0.000000   0.000000   0.000000
     5  C    0.000002   0.000000  -0.000000  -0.000000  -0.000000  -0.000000
     6  C   -0.000029   0.000001   0.000000  -0.000000   0.000000  -0.000000
     7  C    0.000058  -0.000003   0.000000  -0.000003  -0.000000   0.000000
     8  C    0.000002  -0.000003  -0.000003   0.000000  -0.000000   0.000000
     9  C   -0.000000   0.000000   0.000000  -0.000000  -0.000000   0.000000
    10  C    0.000000   0.000000  -0.000000   0.000000  -0.000000   0.000000
    11  H    0.000000   0.000000  -0.000000  -0.000000  -0.000000   0.000000
    12  C   -0.000000   0.000000  -0.000000   0.000000  -0.000000   0.000000
    13  H    0.000000  -0.000000   0.000000   0.000000   0.000000  -0.000000
    14  C    0.006567  -0.000050  -0.000098   0.000052  -0.000013   0.000000
    15  N   -0.009088   0.004409   0.000106   0.000105  -0.000145   0.000003
    16  C   -0.000002  -0.000000   0.000000   0.000000   0.000000   0.000000
    17  H    0.000000   0.000000   0.000000  -0.000000   0.000000   0.000000
    18  C   -0.000001   0.000000   0.000000  -0.000000  -0.000000   0.000000
    19  H   -0.000000  -0.000000   0.000000   0.000000   0.000000  -0.000000
    20  N   -0.000000  -0.000000   0.000000  -0.000000   0.000000   0.000000
    21  H   -0.000000   0.000000   0.000000  -0.000000  -0.000000   0.000000
    22  C   -0.000016  -0.000000   0.000000   0.000000   0.000000   0.000000
    23  H   -0.000013   0.000000  -0.000000   0.000000   0.000000   0.000000
    24  C   -0.001138  -0.000052   0.000050  -0.000094  -0.000012   0.000000
    25  O    0.006918  -0.000178   0.000035  -0.000006   0.000001  -0.000000
    26  O    0.000110  -0.000169  -0.000006   0.000030   0.000001  -0.000000
    27  C   -0.000000  -0.000000   0.000000  -0.000000   0.000000  -0.000000
    28  H   -0.000000  -0.000000   0.000000  -0.000000   0.000000  -0.000000
    29  H    0.000000   0.000000  -0.000000   0.000000  -0.000000   0.000000
    30  N   -0.000000  -0.000000  -0.000000  -0.000000   0.000000   0.000000
    31  C    0.000000   0.000000   0.000000   0.000000  -0.000000   0.000000
    32  H    0.000000   0.000000   0.000000   0.000000  -0.000000   0.000000
    33  H    0.000000   0.000000   0.000000   0.000000  -0.000000   0.000000
    34  C    0.000000  -0.000000  -0.000000   0.000000   0.000000  -0.000000
    35  H   -0.000000  -0.000000  -0.000000  -0.000000   0.000000  -0.000000
    36  H    0.000000   0.000000  -0.000000  -0.000000  -0.000000   0.000000
    37  H   -0.000000  -0.000000   0.000000  -0.000000   0.000000   0.000000
    38  C   -0.014278  -0.045654  -0.006409  -0.006368   0.008435  -0.000423
    39  H    0.007455  -0.004142  -0.001639   0.006704   0.000066   0.000011
    40  H   -0.010690  -0.004113   0.006769  -0.001642   0.000066   0.000010
    41  C    0.371321   0.412665  -0.024966  -0.024807  -0.055938   0.007519
    42  H   -0.029298  -0.021007   0.007908  -0.009795  -0.004340  -0.000082
    43  H    0.662078  -0.021247  -0.009696   0.007898  -0.004322  -0.000079
    44  C   -0.021247   4.643096   0.385792   0.385617   0.423257  -0.016652
    45  H   -0.009696   0.385792   0.666624  -0.029830  -0.024552  -0.005506
    46  H    0.007898   0.385617  -0.029830   0.666818  -0.024522  -0.005492
    47  C   -0.004322   0.423257  -0.024552  -0.024522   4.568283   0.389041
    48  H   -0.000079  -0.016652  -0.005506  -0.005492   0.389041   0.633473
    49  H   -0.001375  -0.022043   0.007372  -0.008358   0.395967  -0.022368
    50  H    0.006103  -0.022054  -0.008358   0.007371   0.396019  -0.022350
              49         50
     1  C    0.000000   0.000000
     2  H    0.000000   0.000000
     3  H    0.000000   0.000000
     4  H    0.000000   0.000000
     5  C    0.000000   0.000000
     6  C    0.000000   0.000000
     7  C   -0.000000  -0.000000
     8  C   -0.000000  -0.000000
     9  C   -0.000000  -0.000000
    10  C   -0.000000  -0.000000
    11  H   -0.000000   0.000000
    12  C    0.000000   0.000000
    13  H   -0.000000  -0.000000
    14  C   -0.000000  -0.000003
    15  N    0.000000   0.000001
    16  C   -0.000000  -0.000000
    17  H    0.000000  -0.000000
    18  C    0.000000   0.000000
    19  H   -0.000000   0.000000
    20  N    0.000000  -0.000000
    21  H   -0.000000  -0.000000
    22  C   -0.000000  -0.000000
    23  H   -0.000000   0.000000
    24  C   -0.000003  -0.000000
    25  O    0.000000  -0.000007
    26  O   -0.000007   0.000000
    27  C    0.000000   0.000000
    28  H    0.000000   0.000000
    29  H   -0.000000  -0.000000
    30  N   -0.000000   0.000000
    31  C   -0.000000  -0.000000
    32  H   -0.000000  -0.000000
    33  H   -0.000000  -0.000000
    34  C   -0.000000   0.000000
    35  H    0.000000   0.000000
    36  H   -0.000000  -0.000000
    37  H   -0.000000  -0.000000
    38  C    0.000327   0.000323
    39  H   -0.000044   0.000020
    40  H    0.000020  -0.000043
    41  C   -0.007412  -0.007414
    42  H    0.006090  -0.001373
    43  H   -0.001375   0.006103
    44  C   -0.022043  -0.022054
    45  H    0.007372  -0.008358
    46  H   -0.008358   0.007371
    47  C    0.395967   0.396019
    48  H   -0.022368  -0.022350
    49  H    0.637005  -0.024086
    50  H   -0.024086   0.636830
 Mulliken charges:
               1
     1  C    0.059751
     2  H    0.050409
     3  H    0.050670
     4  H    0.017317
     5  C    0.009503
     6  C    0.134048
     7  C   -0.061882
     8  C   -0.090229
     9  C    0.111158
    10  C   -0.089615
    11  H    0.043633
    12  C   -0.130330
    13  H    0.042641
    14  C    0.258772
    15  N   -0.341677
    16  C   -0.058975
    17  H    0.039503
    18  C   -0.035547
    19  H    0.050947
    20  N   -0.170134
    21  H    0.161249
    22  C   -0.076724
    23  H    0.036082
    24  C    0.259178
    25  O   -0.318717
    26  O   -0.316802
    27  C    0.076071
    28  H    0.075745
    29  H    0.064982
    30  N   -0.456420
    31  C    0.082224
    32  H    0.033202
    33  H    0.051571
    34  C    0.053621
    35  H    0.054966
    36  H    0.052256
    37  H    0.020215
    38  C    0.141044
    39  H    0.045142
    40  H    0.044971
    41  C   -0.067949
    42  H    0.032577
    43  H    0.032760
    44  C   -0.097470
    45  H    0.036405
    46  H    0.036321
    47  C   -0.067292
    48  H    0.042894
    49  H    0.038913
    50  H    0.039021
 Sum of Mulliken charges =  -0.00000
 Mulliken charges with hydrogens summed into heavy atoms:
               1
     1  C    0.178148
     5  C    0.009503
     6  C    0.134048
     7  C   -0.061882
     8  C   -0.090229
     9  C    0.111158
    10  C   -0.045982
    12  C   -0.087689
    14  C    0.258772
    15  N   -0.341677
    16  C   -0.019472
    18  C    0.015400
    20  N   -0.008885
    22  C   -0.040641
    24  C    0.259178
    25  O   -0.318717
    26  O   -0.316802
    27  C    0.216799
    30  N   -0.456420
    31  C    0.166997
    34  C    0.181057
    38  C    0.231157
    41  C   -0.002612
    44  C   -0.024744
    47  C    0.053535
 Electronic spatial extent (au):  <R**2>=          13353.8605
 Charge=             -0.0000 electrons
 Dipole moment (field-independent basis, Debye):
    X=             12.6203    Y=             -1.1063    Z=              1.1926  Tot=             12.7247
 Quadrupole moment (field-independent basis, Debye-Ang):
   XX=           -114.4518   YY=           -153.0824   ZZ=           -149.7979
   XY=             -1.7112   XZ=             -0.3331   YZ=              0.0691
 Traceless Quadrupole moment (field-independent basis, Debye-Ang):
   XX=             24.6589   YY=            -13.9717   ZZ=            -10.6872
   XY=             -1.7112   XZ=             -0.3331   YZ=              0.0691
 Octapole moment (field-independent basis, Debye-Ang**2):
  XXX=            255.4469  YYY=              4.8908  ZZZ=              5.7290  XYY=             87.9793
  XXY=            -33.6086  XXZ=             14.7553  XZZ=             11.8754  YZZ=             -2.7297
  YYZ=              7.4760  XYZ=              7.0264
 Hexadecapole moment (field-independent basis, Debye-Ang**3):
 XXXX=         -13540.8390 YYYY=          -1976.4601 ZZZZ=           -777.7193 XXXY=             47.7726
 XXXZ=             92.9331 YYYX=             -4.6337 YYYZ=             11.0122 ZZZX=             55.5746
 ZZZY=              7.6314 XXYY=          -2933.6344 XXZZ=          -2593.9626 YYZZ=           -487.4066
 XXYZ=             19.3523 YYXZ=            -25.7191 ZZXY=             -7.1438
 N-N= 2.130087366280D+03 E-N=-6.791798987373D+03  KE= 1.079199371102D+03
 1\1\GINC-STD1617\SP\RwB97XD TD-FC\def2SVP\C20H25N3O2\1005739\16-Feb-20
 23\0\\# td=(nstates=5,root=2) wb97xd scrf=(smd,solvent=ethanol,correct
 edlr) guess=read geom=check def2svp\\Naph_2C_000005_wB97XD_EtOH\\0,1\C
 ,0,7.077881,0.87399,0.342747\H,0,7.126455,1.772014,0.977373\H,0,7.0842
 78,1.200808,-0.70818\H,0,8.002247,0.282924,0.521563\C,0,1.161013,0.531
 276,-0.337726\C,0,-0.247879,0.354811,-0.41586\C,0,-0.813232,-0.940646,
 -0.535707\C,0,-1.094684,1.49043,-0.367679\C,0,2.01813,-0.641407,-0.376
 881\C,0,1.669384,1.846282,-0.226321\H,0,2.745736,2.024768,-0.174891\C,
 0,1.41786,-1.907397,-0.494731\H,0,2.039287,-2.802154,-0.520814\C,0,-2.
 563999,1.32388,-0.439017\N,0,-3.052282,0.033274,-0.593176\C,0,0.034513
 ,-2.041443,-0.572404\H,0,-0.402158,-3.038792,-0.660978\C,0,0.827631,2.
 941241,-0.183848\H,0,1.244306,3.946375,-0.09825\N,0,3.353624,-0.502982
 ,-0.310635\H,0,3.761089,0.393351,-0.05689\C,0,-0.562325,2.762705,-0.25
 1542\H,0,-1.23555,3.621308,-0.216442\C,0,-2.26081,-1.123125,-0.6152\O,
 0,-3.330961,2.272579,-0.370729\O,0,-2.796215,-2.220427,-0.700124\C,0,4
 .301181,-1.589065,-0.225075\H,0,4.183362,-2.280797,-1.074412\H,0,4.136
 048,-2.181852,0.693377\N,0,5.869151,0.127588,0.629068\C,0,5.711482,-1.
 008764,-0.263721\H,0,6.435362,-1.822704,-0.045873\H,0,5.917633,-0.6593
 41,-1.287699\C,0,5.786133,-0.238195,2.030005\H,0,4.813729,-0.698377,2.
 260339\H,0,5.879804,0.661281,2.656722\H,0,6.582947,-0.951186,2.334331\
 C,0,-4.504416,-0.136861,-0.659072\H,0,-4.704053,-1.016233,-1.283249\H,
 0,-4.916105,0.744986,-1.165386\C,0,-5.140895,-0.305642,0.71595\H,0,-4.
 692207,-1.181628,1.214501\H,0,-4.899423,0.575158,1.334919\C,0,-6.65450
 6,-0.478235,0.636211\H,0,-7.092535,0.394493,0.121121\H,0,-6.887409,-1.
 353803,0.005387\C,0,-7.307284,-0.645031,2.002679\H,0,-8.398027,-0.7671
 5,1.915369\H,0,-6.9127,-1.530339,2.527504\H,0,-7.119225,0.23169,2.6437
 31\\Version=ES64L-G16RevA.03\State=1-A\HF=-1090.8637462\RMSD=1.929e-09
 \Dipole=4.9652174,-0.4352714,0.46921\Quadrupole=18.3332633,-10.3875929
 ,-7.9456704,-1.2722362,-0.2476175,0.0513433\PG=C01 [X(C20H25N3O2)]\\@


 OPTIMIST - A PESSIMIST WHO LACKS EXPERIENCE
 Job cpu time:       0 days  8 hours 15 minutes 50.3 seconds.
 Elapsed time:       0 days  0 hours 31 minutes 32.8 seconds.
 File lengths (MBytes):  RWF=   1780 Int=      0 D2E=      0 Chk=     60 Scr=      1
 Normal termination of Gaussian 16 at Thu Feb 16 12:13:11 2023.
