 Entering Gaussian System, Link 0=g16
 Initial command:
 /home/users/sutd/1005739/g16/l1.exe "/scratch/users/sutd/1005739/g16/Gau-3610134.inp" -scrdir="/scratch/users/sutd/1005739/g16/"
 Entering Link 1 = /home/users/sutd/1005739/g16/l1.exe PID=   3610135.
  
 Copyright (c) 1988,1990,1992,1993,1995,1998,2003,2009,2016,
            Gaussian, Inc.  All Rights Reserved.
  
 This is part of the Gaussian(R) 16 program.  It is based on
 the Gaussian(R) 09 system (copyright 2009, Gaussian, Inc.),
 the Gaussian(R) 03 system (copyright 2003, Gaussian, Inc.),
 the Gaussian(R) 98 system (copyright 1998, Gaussian, Inc.),
 the Gaussian(R) 94 system (copyright 1995, Gaussian, Inc.),
 the Gaussian 92(TM) system (copyright 1992, Gaussian, Inc.),
 the Gaussian 90(TM) system (copyright 1990, Gaussian, Inc.),
 the Gaussian 88(TM) system (copyright 1988, Gaussian, Inc.),
 the Gaussian 86(TM) system (copyright 1986, Carnegie Mellon
 University), and the Gaussian 82(TM) system (copyright 1983,
 Carnegie Mellon University). Gaussian is a federally registered
 trademark of Gaussian, Inc.
  
 This software contains proprietary and confidential information,
 including trade secrets, belonging to Gaussian, Inc.
  
 This software is provided under written license and may be
 used, copied, transmitted, or stored only in accord with that
 written license.
  
 The following legend is applicable only to US Government
 contracts under FAR:
  
                    RESTRICTED RIGHTS LEGEND
  
 Use, reproduction and disclosure by the US Government is
 subject to restrictions as set forth in subparagraphs (a)
 and (c) of the Commercial Computer Software - Restricted
 Rights clause in FAR 52.227-19.
  
 Gaussian, Inc.
 340 Quinnipiac St., Bldg. 40, Wallingford CT 06492
  
  
 ---------------------------------------------------------------
 Warning -- This program may not be used in any manner that
 competes with the business of Gaussian, Inc. or will provide
 assistance to any competitor of Gaussian, Inc.  The licensee
 of this program is prohibited from giving any competitor of
 Gaussian, Inc. access to this program.  By using this program,
 the user acknowledges that Gaussian, Inc. is engaged in the
 business of creating and licensing software in the field of
 computational chemistry and represents and warrants to the
 licensee that it is not a competitor of Gaussian, Inc. and that
 it will not use this program in any manner prohibited above.
 ---------------------------------------------------------------
  

 Cite this work as:
 Gaussian 16, Revision A.03,
 M. J. Frisch, G. W. Trucks, H. B. Schlegel, G. E. Scuseria, 
 M. A. Robb, J. R. Cheeseman, G. Scalmani, V. Barone, 
 G. A. Petersson, H. Nakatsuji, X. Li, M. Caricato, A. V. Marenich, 
 J. Bloino, B. G. Janesko, R. Gomperts, B. Mennucci, H. P. Hratchian, 
 J. V. Ortiz, A. F. Izmaylov, J. L. Sonnenberg, D. Williams-Young, 
 F. Ding, F. Lipparini, F. Egidi, J. Goings, B. Peng, A. Petrone, 
 T. Henderson, D. Ranasinghe, V. G. Zakrzewski, J. Gao, N. Rega, 
 G. Zheng, W. Liang, M. Hada, M. Ehara, K. Toyota, R. Fukuda, 
 J. Hasegawa, M. Ishida, T. Nakajima, Y. Honda, O. Kitao, H. Nakai, 
 T. Vreven, K. Throssell, J. A. Montgomery, Jr., J. E. Peralta, 
 F. Ogliaro, M. J. Bearpark, J. J. Heyd, E. N. Brothers, K. N. Kudin, 
 V. N. Staroverov, T. A. Keith, R. Kobayashi, J. Normand, 
 K. Raghavachari, A. P. Rendell, J. C. Burant, S. S. Iyengar, 
 J. Tomasi, M. Cossi, J. M. Millam, M. Klene, C. Adamo, R. Cammi, 
 J. W. Ochterski, R. L. Martin, K. Morokuma, O. Farkas, 
 J. B. Foresman, and D. J. Fox, Gaussian, Inc., Wallingford CT, 2016.
 
 ******************************************
 Gaussian 16:  ES64L-G16RevA.03 25-Dec-2016
                13-Dec-2023 
 ******************************************
 %nprocshared=64
 Will use up to   64 processors via shared memory.
 %mem=220GB
 %chk=06Bu-Naph-folded_wb97xd_EtOH.chk
 ----------------------------------------------------------------------
 # wb97xd/def2SVP TD=(NStates=3, Root=2) SCRF=(SMD, solvent=ethanol, Co
 rrectedLR, NonEq=Save)
 ----------------------------------------------------------------------
 1/30=1,38=1,172=1/1;
 2/12=2,17=6,18=5,40=1/2;
 3/5=43,7=101,11=9,25=1,30=1,70=9032201,71=1,72=4,74=-58/1,2,3,8;
 4//1;
 5/5=2,38=5,53=4/2;
 8/6=1,10=1,107=2,108=3/1;
 9/8=2,15=1,41=3,42=1,70=2,73=22/14;
 10/5=4,13=10,28=2,74=20/2;
 6/7=2,8=2,9=2,10=2,22=-1/1;
 99/5=1,9=1/99;
 --------------------------
 Bu-Naph-folded_wb97xd_EtOH
 --------------------------
 Symbolic Z-matrix:
 Charge =  0 Multiplicity = 1
 C                     4.79471   1.31536   0.74953 
 H                     5.06942   1.5929    1.77255 
 H                     3.76209   1.63517   0.53248 
 H                     5.46085   1.79727   0.01931 
 C                    -0.10564   0.54957  -0.52039 
 C                    -1.50051   0.26532  -0.29947 
 C                    -1.93184  -1.07163  -0.06387 
 C                    -2.44833   1.33404  -0.30243 
 C                     0.82921  -0.54498  -0.52097 
 C                     0.28802   1.90374  -0.7166 
 H                     1.33878   2.15857  -0.85933 
 C                     0.36519  -1.85681  -0.29203 
 H                     1.06563  -2.69284  -0.30474 
 C                    -3.85213   1.06347  -0.07774 
 N                    -4.22128  -0.27925   0.12513 
 C                    -0.97993  -2.11712  -0.05687 
 H                    -1.31925  -3.13897   0.12072 
 C                    -0.66397   2.9379   -0.71622 
 H                    -0.33199   3.96886  -0.87113 
 N                     2.18277  -0.25171  -0.72482 
 H                     2.33588   0.51147  -1.38097 
 C                    -2.01051   2.67081  -0.51605 
 H                    -2.75089   3.47222  -0.51313 
 C                    -3.3341   -1.36188   0.16843 
 O                    -4.7331    1.94972  -0.05569 
 O                    -3.77073  -2.50846   0.39681 
 C                     3.18542  -1.28635  -0.82751 
 H                     3.15124  -1.84896  -1.78131 
 H                     3.04737  -2.02087  -0.0211 
 N                     4.85616  -0.11284   0.57807 
 C                     4.60233  -0.69399  -0.72679 
 H                     5.3349   -1.49831  -0.88158 
 H                     4.75457   0.08206  -1.48784 
 C                     5.04404  -0.95786   1.73032 
 H                     4.22878  -0.76703   2.44627 
 H                     5.99068  -0.67784   2.21728 
 H                     5.06151  -2.01356   1.44141 
 C                    -5.64436  -0.56299   0.34542 
 H                    -5.84561  -1.56316  -0.05946 
 H                    -6.21815   0.17373  -0.23104 
 C                    -6.05522  -0.50511   1.81946 
 H                    -5.44871  -1.2301    2.39022 
 H                    -5.81815   0.49653   2.21915 
 C                    -7.54218  -0.80233   2.02888 
 H                    -8.14333  -0.08268   1.4432 
 H                    -7.77614  -1.79989   1.61365 
 C                    -7.96995  -0.74811   3.49508 
 H                    -9.04457  -0.9664    3.61132 
 H                    -7.41413  -1.48241   4.10333 
 H                    -7.78446   0.24859   3.93126 
 
                          Input orientation:                          
 ---------------------------------------------------------------------
 Center     Atomic      Atomic             Coordinates (Angstroms)
 Number     Number       Type             X           Y           Z
 ---------------------------------------------------------------------
      1          6           0        4.794706    1.315355    0.749526
      2          1           0        5.069424    1.592897    1.772553
      3          1           0        3.762087    1.635174    0.532480
      4          1           0        5.460848    1.797266    0.019312
      5          6           0       -0.105635    0.549565   -0.520393
      6          6           0       -1.500514    0.265321   -0.299470
      7          6           0       -1.931839   -1.071626   -0.063872
      8          6           0       -2.448333    1.334037   -0.302425
      9          6           0        0.829205   -0.544979   -0.520966
     10          6           0        0.288022    1.903743   -0.716600
     11          1           0        1.338777    2.158574   -0.859327
     12          6           0        0.365189   -1.856806   -0.292032
     13          1           0        1.065632   -2.692844   -0.304738
     14          6           0       -3.852129    1.063473   -0.077735
     15          7           0       -4.221284   -0.279248    0.125132
     16          6           0       -0.979927   -2.117124   -0.056866
     17          1           0       -1.319251   -3.138966    0.120723
     18          6           0       -0.663971    2.937895   -0.716224
     19          1           0       -0.331990    3.968858   -0.871133
     20          7           0        2.182769   -0.251709   -0.724817
     21          1           0        2.335881    0.511472   -1.380965
     22          6           0       -2.010510    2.670805   -0.516049
     23          1           0       -2.750885    3.472215   -0.513125
     24          6           0       -3.334104   -1.361884    0.168429
     25          8           0       -4.733100    1.949717   -0.055687
     26          8           0       -3.770733   -2.508461    0.396805
     27          6           0        3.185423   -1.286345   -0.827508
     28          1           0        3.151236   -1.848956   -1.781306
     29          1           0        3.047374   -2.020874   -0.021104
     30          7           0        4.856164   -0.112844    0.578065
     31          6           0        4.602329   -0.693986   -0.726786
     32          1           0        5.334898   -1.498305   -0.881578
     33          1           0        4.754569    0.082064   -1.487838
     34          6           0        5.044037   -0.957862    1.730317
     35          1           0        4.228779   -0.767027    2.446265
     36          1           0        5.990680   -0.677842    2.217277
     37          1           0        5.061506   -2.013560    1.441408
     38          6           0       -5.644361   -0.562992    0.345415
     39          1           0       -5.845606   -1.563164   -0.059463
     40          1           0       -6.218146    0.173726   -0.231043
     41          6           0       -6.055218   -0.505107    1.819462
     42          1           0       -5.448708   -1.230099    2.390221
     43          1           0       -5.818148    0.496527    2.219147
     44          6           0       -7.542180   -0.802325    2.028881
     45          1           0       -8.143332   -0.082678    1.443199
     46          1           0       -7.776141   -1.799894    1.613651
     47          6           0       -7.969948   -0.748114    3.495080
     48          1           0       -9.044574   -0.966404    3.611320
     49          1           0       -7.414125   -1.482409    4.103334
     50          1           0       -7.784456    0.248592    3.931262
 ---------------------------------------------------------------------
                    Distance matrix (angstroms):
                    1          2          3          4          5
     1  C    0.000000
     2  H    1.095027   0.000000
     3  H    1.102586   1.802415   0.000000
     4  H    1.099634   1.807992   1.781966   0.000000
     5  C    5.119812   5.755639   4.152874   5.730076   0.000000
     6  C    6.467825   7.015684   5.501237   7.135057   1.440586
     7  C    7.183711   7.712965   6.332708   7.930276   2.484289
     8  C    7.319055   7.803154   6.273521   7.929265   2.480149
     9  C    4.560723   5.273538   3.803237   5.218250   1.439428
    10  C    4.775555   5.399473   3.701548   5.225996   1.423819
    11  H    3.904212   4.600490   2.843151   4.230132   2.188633
    12  C    5.546897   6.188117   4.940917   6.278130   2.462609
    13  H    5.575224   6.221982   5.167547   6.291583   3.454213
    14  C    8.689969   9.126772   7.659993   9.342345   3.807396
    15  N    9.177184   9.619573   8.219803   9.902868   4.247611
    16  C    6.765986   7.328416   6.075670   7.537363   2.844376
    17  H    7.590576   8.119990   6.984408   8.387277   3.935626
    18  C    5.880324   6.393344   4.779784   6.273393   2.460530
    19  H    5.995884   6.466030   4.917080   6.250254   3.444680
    20  N    3.384020   4.239364   2.763217   3.936728   2.433233
    21  H    3.351274   4.311196   2.637810   3.657795   2.589022
    22  C    7.053360   7.518314   5.957753   7.541278   2.851005
    23  H    7.948728   8.361423   6.847395   8.397708   3.941990
    24  C    8.578044   9.051145   7.711732   9.346317   3.814594
    25  O    9.582790   9.977939   8.521331  10.195364   4.856934
    26  O    9.386838   9.841859   8.598343  10.193325   4.860629
    27  C    3.441754   4.312750   3.273741   3.924706   3.780998
    28  H    4.372524   5.306196   4.226808   4.676694   4.236746
    29  H    3.844147   4.512785   3.766159   4.517154   4.098526
    30  N    1.439767   2.093283   2.062680   2.079992   5.124924
    31  C    2.500791   3.419752   2.777903   2.738623   4.873802
    32  H    3.296815   4.082942   3.780474   3.418809   5.824399
    33  H    2.555076   3.607201   2.734750   2.390031   4.977559
    34  C    2.488299   2.551235   3.130822   3.269862   5.818690
    35  H    2.745089   2.594188   3.106597   3.739478   5.414944
    36  H    2.749087   2.490532   3.627011   3.352302   6.794588
    37  H    3.410507   3.621637   3.978429   4.087080   6.092423
    38  C   10.614406  11.021332   9.661687  11.357941   5.715321
    39  H   11.052447  11.508905  10.143349  11.795533   6.133787
    40  H   11.115203  11.551523  10.115525  11.793959   6.130886
    41  C   11.053492  11.320843  10.129985  11.881129   6.479567
    42  H   10.681701  10.907883   9.823428  11.567392   6.339346
    43  H   10.745368  10.951744   9.793991  11.564902   6.335669
    44  C   12.582531  12.839601  11.660492  13.411748   7.976754
    45  H   13.031827  13.322648  12.063143  13.807076   8.298192
    46  H   12.979895  13.287017  12.087156  13.809394   8.301251
    47  C   13.218637  13.359366  12.332790  14.104829   8.924988
    48  H   14.315096  14.461536  13.426021  15.196962   9.963626
    49  H   12.966536  13.066332  12.139936  13.899656   8.883794
    50  H   13.019092  13.103031  12.115981  13.897475   8.880997
                    6          7          8          9         10
     6  C    0.000000
     7  C    1.424421   0.000000
     8  C    1.428469   2.472021   0.000000
     9  C    2.476537   2.847746   3.784272   0.000000
    10  C    2.461155   3.769172   2.825552   2.515431   0.000000
    11  H    3.458239   4.665176   3.915636   2.771886   1.090594
    12  C    2.825655   2.438217   4.254115   1.410181   3.785227
    13  H    3.916104   3.416313   5.344504   2.171630   4.680056
    14  C    2.493252   2.871646   1.447181   4.969754   4.272593
    15  N    2.807033   2.430050   2.434923   5.098578   5.080138
    16  C    2.450696   1.413949   3.758594   2.441309   4.267355
    17  H    3.434907   2.164078   4.632671   3.428760   5.358484
    18  C    2.831279   4.255504   2.434654   3.794484   1.405618
    19  H    3.925358   5.349548   3.427042   4.673940   2.161711
    20  N    3.743636   4.247247   4.913259   1.399892   2.869862
    21  H    3.993513   4.738604   4.972782   2.031197   2.563889
    22  C    2.468472   3.770470   1.422769   4.290137   2.431430
    23  H    3.448658   4.638874   2.169732   5.380981   3.425852
    24  C    2.495752   1.450710   2.876505   4.298342   4.956550
    25  O    3.653250   4.120151   2.379097   6.113856   5.064641
    26  O    3.651378   2.378707   4.123403   5.084977   6.097598
    27  C    4.964322   5.178380   6.235489   2.489047   4.310904
    28  H    5.320224   5.421390   6.608609   2.946293   4.838837
    29  H    5.097790   5.069069   6.444949   2.710794   4.847717
    30  N    6.428097   6.885371   7.498293   4.196547   5.158556
    31  C    6.192541   6.578557   7.348795   3.781670   5.036025
    32  H    7.083226   7.325037   8.302787   4.619539   6.088687
    33  H    6.369605   6.933018   7.406378   4.091028   4.885014
    34  C    6.960414   7.203812   8.094470   4.796202   6.065960
    35  H    6.436583   6.659338   7.520212   4.517839   5.715443
    36  H    7.958741   8.253788   9.034019   5.844352   6.913214
    37  H    7.161289   7.215260   8.405060   4.890809   6.541285
    38  C    4.274745   3.769489   3.772666   6.531309   6.511976
    39  H    4.720253   3.944515   4.471495   6.767776   7.076204
    40  H    4.719017   4.466685   3.944985   7.089834   6.749737
    41  C    5.082200   4.568385   4.571047   7.271484   7.243677
    42  H    5.005892   4.291393   4.777801   6.953890   7.237636
    43  H    5.003884   4.772282   4.291317   7.265002   6.919840
    44  C    6.562226   5.994002   5.995524   8.754886   8.727688
    45  H    6.876411   6.467761   6.122687   9.196635   8.927392
    46  H    6.878128   6.123751   6.471353   8.954517   9.174842
    47  C    7.568305   7.016378   7.017452   9.674450   9.641818
    48  H    8.586284   8.006816   8.007486  10.711905  10.680168
    49  H    7.576941   6.898537   7.211253   9.498180   9.696435
    50  H    7.575441   7.208134   6.897572   9.728682   9.460816
                   11         12         13         14         15
    11  H    0.000000
    12  C    4.170488   0.000000
    13  H    4.890648   1.090753   0.000000
    14  C    5.362428   5.134172   6.192400   0.000000
    15  N    6.150318   4.868105   5.827668   1.407242   0.000000
    16  C    4.929698   1.390110   2.139441   4.285578   3.730591
    17  H    6.007457   2.156766   2.463272   4.910738   4.074285
    18  C    2.153792   4.922222   5.904750   3.753062   4.869534
    19  H    2.463479   5.895742   6.830258   4.632723   5.845131
    20  N    2.557319   2.463176   2.717278   6.210347   6.460268
    21  H    1.994810   3.267743   3.611016   6.347801   6.774214
    22  C    3.405575   5.117948   6.186763   2.483384   3.741851
    23  H    4.309390   6.177157   7.253770   2.684090   4.079573
    24  C    5.940179   3.760551   4.620933   2.492249   1.400380
    25  O    6.128389   6.366948   7.432408   1.249810   2.294109
    26  O    7.033219   4.243230   4.890459   3.604237   2.290457
    27  C    3.908783   2.926752   2.597122   7.457274   7.535322
    28  H    4.493924   3.159123   2.691123   7.773771   7.775123
    29  H    4.592353   2.700821   2.111704   7.557747   7.475830
    30  N    4.426900   4.895644   4.669462   8.811819   9.090264
    31  C    4.336524   4.415260   4.084334   8.659549   8.874340
    32  H    5.416848   5.017379   4.470604   9.571329   9.686082
    33  H    4.046549   4.945283   4.765301   8.776492   9.126782
    34  C    5.490663   5.175868   4.793675   9.300356   9.427794
    35  H    5.276191   4.859343   4.613273   8.661546   8.776625
    36  H    6.257072   6.271582   5.888709  10.255737  10.431690
    37  H    6.046387   5.008471   4.413328   9.551378   9.534706
    38  C    7.590951   6.180209   7.069864   2.456937   1.467714
    39  H    8.130589   6.222081   7.007250   3.297500   2.078687
    40  H    7.838460   6.889636   7.827904   2.532428   2.078342
    41  C    8.303148   6.892541   7.746284   3.303544   2.507006
    42  H    8.253037   6.433400   7.199934   3.728316   2.746146
    43  H    7.966240   7.076571   7.995531   3.076089   2.745305
    44  C    9.796942   8.308132   9.116703   4.640637   3.863447
    45  H   10.011754   8.863040   9.730019   4.694819   4.142270
    46  H   10.240450   8.361586   9.091453   5.143688   4.143074
    47  C   10.679984   9.222035   9.993113   5.744849   5.062496
    48  H   11.728860  10.226075  10.978724   6.685134   5.990811
    49  H   10.700376   8.942994   9.633407   6.053980   5.240985
    50  H   10.480036   9.417305  10.243037   5.674441   5.240366
                   16         17         18         19         20
    16  C    0.000000
    17  H    1.091256   0.000000
    18  C    5.107622   6.169126   0.000000
    19  H    6.174304   7.244282   1.094117   0.000000
    20  N    3.732101   4.616853   4.275228   4.915141   0.000000
    21  H    4.433660   5.379661   3.915166   4.396701   1.018047
    22  C    4.919066   5.885300   1.387290   2.151385   5.115492
    23  H    5.880916   6.794045   2.163783   2.495171   6.184930
    24  C    2.482598   2.686993   5.138124   6.205658   5.697918
    25  O    5.534032   6.130268   4.239176   4.910362   7.288570
    26  O    2.854393   2.546276   6.368171   7.442330   6.464917
    27  C    4.316738   4.962201   5.716154   6.323864   1.444414
    28  H    4.484653   5.026638   6.213224   6.841655   2.145995
    29  H    4.028610   4.509729   6.232709   6.929613   2.091100
    30  N    6.203244   6.892193   6.438485   6.758506   2.977218
    31  C    5.799629   6.462299   6.397233   6.790468   2.459651
    32  H    6.398445   6.926332   7.462817   7.874236   3.393301
    33  H    6.306231   7.060722   6.173470   6.431219   2.703287
    34  C    6.389527   6.916606   7.331019   7.742208   3.835778
    35  H    5.934564   6.466442   6.904114   7.364397   3.808867
    36  H    7.472123   7.992982   8.121783   8.432452   4.830910
    37  H    6.225308   6.612474   7.871046   8.380153   4.010458
    38  C    4.932961   5.039117   6.179609   7.087943   7.906090
    39  H    4.897112   4.796197   6.894941   7.852518   8.161949
    40  H    5.719901   5.924259   6.222933   7.032750   8.426160
    41  C    5.646041   5.679112   6.881098   7.746677   8.625659
    42  H    5.171562   5.083976   7.065117   7.990393   8.300611
    43  H    5.951453   6.153070   6.414220   7.190608   8.558122
    44  C    7.010150   6.915620   8.296662   9.119271  10.122285
    45  H    7.596284   7.593281   8.350318   9.098799  10.552593
    46  H    7.005697   6.761167   8.857648   9.740022  10.346265
    47  C    7.959328   7.831617   9.203208   9.982587  11.005981
    48  H    8.934107   8.751280  10.208119  10.970794  12.056787
    49  H    7.688240   7.466784   9.398500  10.228307  10.813234
    50  H    8.234282   8.233750   8.918115   9.614709  11.012490
                   21         22         23         24         25
    21  H    0.000000
    22  C    4.929697   0.000000
    23  H    5.949314   1.091064   0.000000
    24  C    6.169183   4.299185   4.916622   0.000000
    25  O    7.334535   2.853839   2.540950   3.601960   0.000000
    26  O    7.040682   5.545853   6.134863   1.247974   4.583258
    27  C    2.064021   6.538636   7.614623   6.595592   8.588994
    28  H    2.529169   6.976585   8.047246   6.789576   8.920226
    29  H    2.961118   6.916575   8.002245   6.418213   8.735134
    30  N    3.252598   7.489793   8.480008   8.295082   9.829028
    31  C    2.649125   7.422659   8.454149   8.014641   9.725727
    32  H    3.644543   8.454000   9.498511   8.733426  10.674059
    33  H    2.458834   7.308368   8.293071   8.381816   9.775226
    34  C    4.378713   8.245000   9.242263   8.532056  10.355493
    35  H    4.457052   7.715097   8.685901   7.920833   9.693077
    36  H    5.264919   9.094149  10.054503   9.571692  11.272528
    37  H    4.665898   8.705649   9.744095   8.516538  10.671606
    38  C    8.235237   4.940085   5.039066   2.450886   2.702774
    39  H    8.543255   5.730875   5.927744   2.529840   3.684836
    40  H    8.637579   4.901105   4.793902   3.291713   2.321692
    41  C    9.038070   5.648070   5.672625   3.296125   3.360110
    42  H    8.823533   5.956900   6.149750   3.070061   4.075020
    43  H    8.913429   5.167871   5.072291   3.718818   2.909289
    44  C   10.532293   7.009898   6.905794   4.634899   4.450853
    45  H   10.869352   7.002273   6.748552   5.137128   4.243462
    46  H   10.796440   7.600347   7.587589   4.691717   5.109439
    47  C   11.470505   7.955694   7.817640   5.738847   5.510302
    48  H   12.514862   8.929867   8.736298   6.679773   6.367064
    49  H   11.362910   8.233283   8.222275   5.669619   6.022030
    50  H   11.432851   7.680113   7.448568   6.046336   5.300977
                   26         27         28         29         30
    26  O    0.000000
    27  C    7.168027   0.000000
    28  H    7.286479   1.107895   0.000000
    29  H    6.848282   1.099490   1.771625   0.000000
    30  N    8.955177   2.478733   3.389321   2.696535   0.000000
    31  C    8.640772   1.539044   2.133457   2.162523   1.450791
    32  H    9.250254   2.160577   2.387645   2.499252   2.068634
    33  H    9.107331   2.184216   2.526982   3.080288   2.077562
    34  C    9.048911   3.178807   4.087571   2.860792   1.441193
    35  H    8.439495   3.475036   4.494889   3.009279   2.076473
    36  H   10.097052   4.184550   5.042085   3.934099   2.072044
    37  H    8.907557   3.032575   3.749948   2.489121   2.097677
    38  C    2.701476   8.936670   9.139977   8.820772  10.512744
    39  H    2.325267   9.067856   9.164583   8.904834  10.818399
    40  H    3.684854   9.534919   9.709783   9.524190  11.107525
    41  C    3.355034   9.643974   9.976485   9.409698  10.988776
    42  H    2.902330   9.214400   9.578291   8.866974  10.522479
    43  H    4.067283   9.670834  10.097265   9.484383  10.816904
    44  C    4.449538  11.111917  11.400092  10.854766  12.501967
    45  H    5.108717  11.616609  11.877897  11.451318  13.028287
    46  H    4.245712  11.241836  11.442714  10.948504  12.786466
    47  C    5.507407  11.975674  12.358513  11.634640  13.168967
    48  H    6.365881  13.014545  13.364022  12.669713  14.253411
    49  H    5.297683  11.691966  12.099182  11.258059  12.839907
    50  H    6.016951  12.055711  12.514891  11.751605  13.082807
                   31         32         33         34         35
    31  C    0.000000
    32  H    1.098884   0.000000
    33  H    1.097557   1.789385   0.000000
    34  C    2.510397   2.683035   3.394372   0.000000
    35  H    3.195798   3.582291   4.058889   1.101656   0.000000
    36  H    3.255040   3.272020   3.979109   1.100761   1.778956
    37  H    2.579377   2.395098   3.614738   1.094656   1.804721
    38  C   10.303467  11.087130  10.578972  10.784977  10.096242
    39  H   10.505243  11.210876  10.821772  11.052331  10.411808
    40  H   10.866525  11.691523  11.044836  11.487567  10.825490
    41  C   10.959122  11.748055  11.319651  11.108843  10.306410
    42  H   10.536911  11.272212  10.993997  10.517000   9.688722
    43  H   10.894135  11.746671  11.211417  10.970017  10.128618
    44  C   12.453696  13.220223  12.820277  12.590718  11.778410
    45  H   12.943508  13.750319  13.227773  13.219496  12.431557
    46  H   12.646233  13.349774  13.045294  12.848330  12.078003
    47  C   13.262324  14.026291  13.690581  13.134770  12.243746
    48  H   14.322407  15.074424  14.748459  14.213627  13.325877
    49  H   12.974854  13.688944  13.482800  12.692996  11.781972
    50  H   13.267189  14.083058  13.660949  13.071722  12.147202
                   36         37         38         39         40
    36  H    0.000000
    37  H    1.802631   0.000000
    38  C   11.785213  10.859141   0.000000
    39  H   12.085736  11.019100   1.097620   0.000000
    40  H   12.480980  11.610851   1.097400   1.784660   0.000000
    41  C   12.053703  11.224968   1.531329   2.166514   2.166086
    42  H   11.454017  10.581997   2.159755   2.503879   3.071447
    43  H   11.867079  11.192510   2.159549   3.071668   2.503524
    44  C   13.534744  12.675374   2.548147   2.796144   2.795174
    45  H   14.167700  13.345263   2.771405   3.119195   2.564210
    46  H   13.825655  12.840580   2.771793   2.565603   3.118561
    47  C   14.019160  13.252838   3.919568   4.220416   4.219312
    48  H   15.102499  14.310365   4.731842   4.905524   4.904319
    49  H   13.560728  12.767511   4.254333   4.449231   4.791657
    50  H   13.912239  13.279136   4.254054   4.792440   4.447889
                   41         42         43         44         45
    41  C    0.000000
    42  H    1.104189   0.000000
    43  H    1.104183   1.773976   0.000000
    44  C    1.530768   2.167068   2.166911   0.000000
    45  H    2.163386   3.078055   2.518741   1.105576   0.000000
    46  H    2.163425   2.518863   3.077972   1.105576   1.764288
    47  C    2.555961   2.794579   2.794169   1.528288   2.164043
    48  H    3.515651   3.806688   3.806329   2.188201   2.508776
    49  H    2.831575   2.619405   3.164410   2.186840   3.093107
    50  H    2.831612   3.164973   2.619003   2.186819   2.535545
                   46         47         48         49         50
    46  H    0.000000
    47  C    2.164157   0.000000
    48  H    2.508846   1.102716   0.000000
    49  H    2.535818   1.103676   1.779523   0.000000
    50  H    3.093167   1.103669   1.779459   1.778516   0.000000
 Stoichiometry    C20H25N3O2
 Framework group  C1[X(C20H25N3O2)]
 Deg. of freedom   144
 Full point group                 C1      NOp   1
 Largest Abelian subgroup         C1      NOp   1
 Largest concise Abelian subgroup C1      NOp   1
                         Standard orientation:                         
 ---------------------------------------------------------------------
 Center     Atomic      Atomic             Coordinates (Angstroms)
 Number     Number       Type             X           Y           Z
 ---------------------------------------------------------------------
      1          6           0        5.892958    0.871254    1.566561
      2          1           0        6.039447    0.821349    2.650597
      3          1           0        4.903083    1.298319    1.335350
      4          1           0        6.656453    1.507343    1.095750
      5          6           0        1.182207    0.788345   -0.437042
      6          6           0       -0.234708    0.531082   -0.475190
      7          6           0       -0.718398   -0.789723   -0.699896
      8          6           0       -1.153527    1.605593   -0.270927
      9          6           0        2.088111   -0.309055   -0.653844
     10          6           0        1.623826    2.116199   -0.174286
     11          1           0        2.688926    2.341923   -0.110992
     12          6           0        1.573346   -1.602087   -0.881215
     13          1           0        2.253376   -2.435949   -1.060029
     14          6           0       -2.579504    1.360789   -0.302480
     15          7           0       -2.997461    0.040541   -0.552655
     16          6           0        0.204407   -1.843486   -0.892938
     17          1           0       -0.174540   -2.851720   -1.068162
     18          6           0        0.699774    3.156976    0.022367
     19          1           0        1.068706    4.167695    0.220937
     20          7           0        3.462044   -0.045840   -0.601662
     21          1           0        3.712766    0.866018   -0.978587
     22          6           0       -0.666217    2.919431   -0.024693
     23          1           0       -1.385254    3.725354    0.129889
     24          6           0       -2.144213   -1.055639   -0.729914
     25          8           0       -3.438766    2.250029   -0.120975
     26          8           0       -2.628564   -2.192311   -0.905473
     27          6           0        4.449446   -1.060001   -0.889493
     28          1           0        4.527076   -1.316042   -1.964596
     29          1           0        4.194934   -1.989323   -0.359907
     30          7           0        5.948354   -0.445358    0.986569
     31          6           0        5.852876   -0.603977   -0.452361
     32          1           0        6.583602   -1.367799   -0.752629
     33          1           0        6.116441    0.350909   -0.924967
     34          6           0        5.970503   -1.599736    1.849099
     35          1           0        5.073957   -1.581054    2.489022
     36          1           0        6.852065   -1.528338    2.504405
     37          1           0        6.004535   -2.523923    1.263445
     38          6           0       -4.442244   -0.214466   -0.594555
     39          1           0       -4.609128   -1.039377   -1.299142
     40          1           0       -4.923009    0.689830   -0.988762
     41          6           0       -5.037639   -0.567333    0.771445
     42          1           0       -4.523468   -1.460615    1.167562
     43          1           0       -4.834539    0.258471    1.475732
     44          6           0       -6.544633   -0.828419    0.707780
     45          1           0       -7.051680    0.063825    0.296558
     46          1           0       -6.742578   -1.645969   -0.009665
     47          6           0       -7.155861   -1.181542    2.063275
     48          1           0       -8.240527   -1.363288    1.982959
     49          1           0       -6.696938   -2.091815    2.486234
     50          1           0       -7.008680   -0.368211    2.794655
 ---------------------------------------------------------------------
 Rotational constants (GHZ):           0.4780446           0.0910137           0.0837496
 Standard basis: def2SVP (5D, 7F)
 There are   500 symmetry adapted cartesian basis functions of A   symmetry.
 There are   475 symmetry adapted basis functions of A   symmetry.
   475 basis functions,   800 primitive gaussians,   500 cartesian basis functions
    91 alpha electrons       91 beta electrons
       nuclear repulsion energy      2123.9513914036 Hartrees.
 NAtoms=   50 NActive=   50 NUniq=   50 SFac= 1.00D+00 NAtFMM=   60 NAOKFM=F Big=F
 Integral buffers will be    131072 words long.
 Raffenetti 1 integral format.
 Two-electron integral symmetry is turned on.
 Nuclear repulsion after empirical dispersion term =     2123.9127994994 Hartrees.
 ------------------------------------------------------------------------------
 Polarizable Continuum Model (PCM)
 =================================
 Model                : PCM.
 Atomic radii         : SMD-Coulomb.
 Polarization charges : Total charges.
 Charge compensation  : None.
 Solution method      : On-the-fly selection.
 Cavity type          : VdW (van der Waals Surface) (Alpha=1.000).
 Cavity algorithm     : GePol (No added spheres)
                        Default sphere list used, NSphG=   50.
                        Lebedev-Laikov grids with approx.  5.0 points / Ang**2.
                        Smoothing algorithm: York/Karplus (Gamma=1.0000).
                        Polarization charges: spherical gaussians, with
                                              point-specific exponents (IZeta= 3).
                        Self-potential: point-specific (ISelfS= 7).
                        Self-field    : sphere-specific E.n sum rule (ISelfD= 2).
 1st derivatives      : Analytical E(r).r(x)/FMM algorithm (CHGder, D1EAlg=3).
                        Cavity 1st derivative terms included.
 Solvent              : Ethanol, Eps=  24.852000 Eps(inf)=   1.852593
 ------------------------------------------------------------------------------
 ------------------------------------------------------------------------------
 Atomic radii for non-electrostatic terms: SMD-CDS.
 ------------------------------------------------------------------------------
 Nuclear repulsion after PCM non-electrostatic terms =     2123.9105262723 Hartrees.
 One-electron integrals computed using PRISM.
   1 Symmetry operations used in ECPInt.
 ECPInt:  NShTT=   25425 NPrTT=   90925 LenC2=   20445 LenP2D=   49359.
 LDataN:  DoStor=T MaxTD1= 4 Len=   56
 NBasis=   475 RedAO= T EigKep=  2.21D-04  NBF=   475
 NBsUse=   475 1.00D-06 EigRej= -1.00D+00 NBFU=   475
 ExpMin= 1.22D-01 ExpMax= 2.27D+03 ExpMxC= 3.41D+02 IAcc=3 IRadAn=         5 AccDes= 0.00D+00
 Harris functional with IExCor= 4639 and IRadAn=       5 diagonalized for initial guess.
 HarFok:  IExCor= 4639 AccDes= 0.00D+00 IRadAn=         5 IDoV= 1 UseB2=F ITyADJ=14
 ICtDFT=  3500011 ScaDFX=  1.000000  1.000000  1.000000  1.000000
 FoFCou: FMM=F IPFlag=           0 FMFlag=      100000 FMFlg1=           0
         NFxFlg=           0 DoJE=T BraDBF=F KetDBF=T FulRan=T
         wScrn=  0.000000 ICntrl=       500 IOpCl=  0 I1Cent=   200000004 NGrid=           0
         NMat0=    1 NMatS0=      1 NMatT0=    0 NMatD0=    1 NMtDS0=    0 NMtDT0=    0
 Petite list used in FoFCou.
 Requested convergence on RMS density matrix=1.00D-08 within 128 cycles.
 Requested convergence on MAX density matrix=1.00D-06.
 Requested convergence on             energy=1.00D-06.
 No special actions if energy rises.
 Inv3:  Mode=1 IEnd=    37594800.
 Iteration    1 A*A^-1 deviation from unit magnitude is 3.33D-15 for   2469.
 Iteration    1 A*A^-1 deviation from orthogonality  is 3.77D-15 for   1941   1065.
 Iteration    1 A^-1*A deviation from unit magnitude is 3.55D-15 for   2865.
 Iteration    1 A^-1*A deviation from orthogonality  is 2.72D-15 for   2376   2343.
 Error on total polarization charges =  0.06137
 SCF Done:  E(RwB97XD) =  -1090.83530338     A.U. after   15 cycles
            NFock= 15  Conv=0.58D-08     -V/T= 2.0114
 SMD-CDS (non-electrostatic) energy       (kcal/mol) =      -1.43
 (included in total energy above)
 DoSCS=F DFT=T ScalE2(SS,OS)=  1.000000  1.000000
 ExpMin= 1.22D-01 ExpMax= 2.27D+03 ExpMxC= 3.41D+02 IAcc=3 IRadAn=         5 AccDes= 0.00D+00
 HarFok:  IExCor=  205 AccDes= 0.00D+00 IRadAn=         5 IDoV=-2 UseB2=F ITyADJ=14
 ICtDFT= 12500011 ScaDFX=  1.000000  1.000000  1.000000  1.000000
 GSVD:  LWork=        -825 too small for GESVD, short by        3500 words or        3500 for optimal perf.
 Range of M.O.s used for correlation:    26   475
 NBasis=   475 NAE=    91 NBE=    91 NFC=    25 NFV=     0
 NROrb=    450 NOA=    66 NOB=    66 NVA=   384 NVB=   384

 **** Warning!!: The largest alpha MO coefficient is  0.13265385D+02

 NEqPCM:  Using equilibrium solvation (IEInf=0, Eps=  24.8520, EpsInf=   1.8526)
 Orbital symmetries:
       Occupied  (A) (A) (A) (A) (A) (A) (A) (A) (A) (A) (A) (A)
                 (A) (A) (A) (A) (A) (A) (A) (A) (A) (A) (A) (A)
                 (A) (A) (A) (A) (A) (A) (A) (A) (A) (A) (A) (A)
                 (A) (A) (A) (A) (A) (A) (A) (A) (A) (A) (A) (A)
                 (A) (A) (A) (A) (A) (A) (A) (A) (A) (A) (A) (A)
                 (A) (A) (A) (A) (A) (A) (A) (A) (A) (A) (A) (A)
                 (A) (A) (A) (A) (A) (A) (A) (A) (A) (A) (A) (A)
                 (A) (A) (A) (A) (A) (A) (A)
       Virtual   (A) (A) (A) (A) (A) (A) (A) (A) (A) (A) (A) (A)
                 (A) (A) (A) (A) (A) (A) (A) (A) (A) (A) (A) (A)
                 (A) (A) (A) (A) (A) (A) (A) (A) (A) (A) (A) (A)
                 (A) (A) (A) (A) (A) (A) (A) (A) (A) (A) (A) (A)
                 (A) (A) (A) (A) (A) (A) (A) (A) (A) (A) (A) (A)
                 (A) (A) (A) (A) (A) (A) (A) (A) (A) (A) (A) (A)
                 (A) (A) (A) (A) (A) (A) (A) (A) (A) (A) (A) (A)
                 (A) (A) (A) (A) (A) (A) (A) (A) (A) (A) (A) (A)
                 (A) (A) (A) (A) (A) (A) (A) (A) (A) (A) (A) (A)
                 (A) (A) (A) (A) (A) (A) (A) (A) (A) (A) (A) (A)
                 (A) (A) (A) (A) (A) (A) (A) (A) (A) (A) (A) (A)
                 (A) (A) (A) (A) (A) (A) (A) (A) (A) (A) (A) (A)
                 (A) (A) (A) (A) (A) (A) (A) (A) (A) (A) (A) (A)
                 (A) (A) (A) (A) (A) (A) (A) (A) (A) (A) (A) (A)
                 (A) (A) (A) (A) (A) (A) (A) (A) (A) (A) (A) (A)
                 (A) (A) (A) (A) (A) (A) (A) (A) (A) (A) (A) (A)
                 (A) (A) (A) (A) (A) (A) (A) (A) (A) (A) (A) (A)
                 (A) (A) (A) (A) (A) (A) (A) (A) (A) (A) (A) (A)
                 (A) (A) (A) (A) (A) (A) (A) (A) (A) (A) (A) (A)
                 (A) (A) (A) (A) (A) (A) (A) (A) (A) (A) (A) (A)
                 (A) (A) (A) (A) (A) (A) (A) (A) (A) (A) (A) (A)
                 (A) (A) (A) (A) (A) (A) (A) (A) (A) (A) (A) (A)
                 (A) (A) (A) (A) (A) (A) (A) (A) (A) (A) (A) (A)
                 (A) (A) (A) (A) (A) (A) (A) (A) (A) (A) (A) (A)
                 (A) (A) (A) (A) (A) (A) (A) (A) (A) (A) (A) (A)
                 (A) (A) (A) (A) (A) (A) (A) (A) (A) (A) (A) (A)
                 (A) (A) (A) (A) (A) (A) (A) (A) (A) (A) (A) (A)
                 (A) (A) (A) (A) (A) (A) (A) (A) (A) (A) (A) (A)
                 (A) (A) (A) (A) (A) (A) (A) (A) (A) (A) (A) (A)
                 (A) (A) (A) (A) (A) (A) (A) (A) (A) (A) (A) (A)
                 (A) (A) (A) (A) (A) (A) (A) (A) (A) (A) (A) (A)
                 (A) (A) (A) (A) (A) (A) (A) (A) (A) (A) (A) (A)
    12 initial guesses have been made.
 Convergence on wavefunction:    0.000001000000000
 Iteration     1 Dimension    12 NMult     0 NNew     12
 CISAX will form    12 AO SS matrices at one time.
 New state      3 was old state      7
 Iteration     2 Dimension    18 NMult    12 NNew      6
 Iteration     3 Dimension    24 NMult    18 NNew      6
 Iteration     4 Dimension    30 NMult    24 NNew      6
 Iteration     5 Dimension    36 NMult    30 NNew      6
 Iteration     6 Dimension    42 NMult    36 NNew      6
 Iteration     7 Dimension    48 NMult    42 NNew      6
 Iteration     8 Dimension    54 NMult    48 NNew      6
 Iteration     9 Dimension    60 NMult    54 NNew      6
 Iteration    10 Dimension    66 NMult    60 NNew      6
 Iteration    11 Dimension    72 NMult    66 NNew      6
 Iteration    12 Dimension    74 NMult    72 NNew      2
 Iteration    13 Dimension    76 NMult    74 NNew      2
 Iteration    14 Dimension    78 NMult    76 NNew      2
 Iteration    15 Dimension    80 NMult    78 NNew      2
 Iteration    16 Dimension    82 NMult    80 NNew      2
 PCM Corrected Linear-Response:
 The state of interest is root number   2
 Excitation energy =    3.4310 eV, Total energy =  -1090.70921572    
 Recompute the excitation energies using the linear response reaction field.
 Convergence on wavefunction:    0.000001000000000
 Iteration     1 Dimension     3 NMult     0 NNew      3
 Iteration     2 Dimension     9 NMult     3 NNew      6
 Iteration     3 Dimension    15 NMult     9 NNew      6
 Iteration     4 Dimension    21 NMult    15 NNew      6
 Iteration     5 Dimension    27 NMult    21 NNew      6
 Iteration     6 Dimension    33 NMult    27 NNew      6
 Iteration     7 Dimension    39 NMult    33 NNew      6
 Iteration     8 Dimension    45 NMult    39 NNew      6
 Iteration     9 Dimension    51 NMult    45 NNew      6
 Iteration    10 Dimension    57 NMult    51 NNew      6
 Iteration    11 Dimension    63 NMult    57 NNew      6
 Iteration    12 Dimension    69 NMult    63 NNew      6
 Iteration    13 Dimension    71 NMult    69 NNew      2
 Iteration    14 Dimension    73 NMult    71 NNew      2
 Iteration    15 Dimension    75 NMult    73 NNew      2
 ***********************************************************************
 Excited states from <AA,BB:AA,BB> singles matrix:
 ***********************************************************************
 
 Ground to excited state transition densities written to RWF  633
 Ground to excited state transition electric dipole moments (Au):
       state          X           Y           Z        Dip. S.      Osc.
         1         2.9063     -0.1865     -0.0686      8.4861      0.6275
         2         0.3231      0.0935      0.0153      0.1134      0.0095
         3        -0.0289     -0.6228     -0.1037      0.3995      0.0407
 Ground to excited state transition velocity dipole moments (Au):
       state          X           Y           Z        Dip. S.      Osc.
         1        -0.3258      0.0287      0.0099      0.1070      0.6434
         2        -0.0399     -0.0142     -0.0005      0.0018      0.0095
         3         0.0054      0.0909      0.0147      0.0085      0.0372
 Ground to excited state transition magnetic dipole moments (Au):
       state          X           Y           Z
         1        -0.0021      0.3484      0.0543
         2         0.0254      0.0394     -0.1227
         3         0.1079     -0.1823      1.0521
 Ground to excited state transition velocity quadrupole moments (Au):
       state          XX          YY          ZZ          XY          XZ          YZ
         1        -0.5128      0.2156     -0.0588     -0.0294      0.3183     -0.0017
         2         0.3048     -0.0262     -0.0000     -0.1311      0.0315      0.0034
         3        -0.0382      0.3730     -0.0165     -0.1605     -0.0408     -0.0282
 <0|del|b> * <b|rxdel|0> + <0|del|b> * <b|delr+rdel|0>
 Rotatory Strengths (R) in cgs (10**-40 erg-esu-cm/Gauss)
       state          XX          YY          ZZ    R(velocity)    E-M Angle
         1         3.5395      6.5872     61.3967     23.8411       84.42
         2         0.0281     -3.2504     -5.3084     -2.8435      105.80
         3         0.5951     42.3292    -45.2685     -0.7814       90.29
 1/2[<0|r|b>*<b|rxdel|0> + (<0|rxdel|b>*<b|r|0>)*]
 Rotatory Strengths (R) in cgs (10**-40 erg-esu-cm/Gauss)
       state          XX          YY          ZZ     R(length)
         1         4.2865     45.9496      2.6332     17.6231
         2        -5.8133     -2.6053      1.3265     -2.3640
         3         2.2043    -80.3012     77.1514     -0.3152
  1/2[<0|del|b>*<b|r|0> + (<0|r|b>*<b|del|0>)*] (Au)
       state          X           Y           Z        Dip. S.   Osc.(frdel)
         1        -0.9468     -0.0054     -0.0007      0.9528      0.6352
         2        -0.0129     -0.0013     -0.0000      0.0142      0.0095
         3        -0.0002     -0.0566     -0.0015      0.0583      0.0389

 Excitation energies and oscillator strengths:
 
 Excited State   1:      Singlet-A      3.0180 eV  410.82 nm  f=0.6275  <S**2>=0.000
      90 -> 92         0.67720
      91 -> 92        -0.17567
 
 Excited State   2:      Singlet-A      3.4134 eV  363.23 nm  f=0.0095  <S**2>=0.000
      90 -> 92         0.17538
      91 -> 92         0.67269
 This state for optimization and/or second-order correction.
 Total Energy, E(TD-HF/TD-DFT) =  -1090.70986252    
 Copying the excited state density for this state as the 1-particle RhoCI density.
 
 Excited State   3:      Singlet-A      4.1545 eV  298.44 nm  f=0.0407  <S**2>=0.000
      86 -> 92        -0.10515
      88 -> 92         0.53156
      89 -> 92         0.22992
      90 -> 93         0.31447
      90 -> 94         0.16536
 SavETr:  write IOETrn=   770 NScale= 10 NData=  16 NLR=1 NState=    3 LETran=      64.
 NEqPCM:  Using equilibrium solvation (IEInf=0, Eps=  24.8520, EpsInf=   1.8526)
          Differentiating once with respect to electric field.
                with respect to dipole field.
          Electric field/nuclear overlap derivatives assumed to be zero.
          There are     1 degrees of freedom in the 1st order CPHF.  IDoFFX=0 NUNeed=     1.
 LinEq1:  Iter=  0 NonCon=     1 RMS=5.53D-03 Max=1.72D-01 NDo=     1
 AX will form     1 AO Fock derivatives at one time.
 LinEq1:  Iter=  1 NonCon=     1 RMS=1.81D-03 Max=1.50D-01 NDo=     1
 LinEq1:  Iter=  2 NonCon=     1 RMS=8.95D-04 Max=9.62D-02 NDo=     1
 LinEq1:  Iter=  3 NonCon=     1 RMS=3.12D-04 Max=2.46D-02 NDo=     1
 LinEq1:  Iter=  4 NonCon=     1 RMS=1.15D-04 Max=5.79D-03 NDo=     1
 LinEq1:  Iter=  5 NonCon=     1 RMS=5.57D-05 Max=2.26D-03 NDo=     1
 LinEq1:  Iter=  6 NonCon=     1 RMS=3.90D-05 Max=1.90D-03 NDo=     1
 LinEq1:  Iter=  7 NonCon=     1 RMS=1.53D-05 Max=4.74D-04 NDo=     1
 LinEq1:  Iter=  8 NonCon=     1 RMS=8.54D-06 Max=5.70D-04 NDo=     1
 LinEq1:  Iter=  9 NonCon=     1 RMS=3.69D-06 Max=1.47D-04 NDo=     1
 LinEq1:  Iter= 10 NonCon=     1 RMS=1.73D-06 Max=7.28D-05 NDo=     1
 LinEq1:  Iter= 11 NonCon=     1 RMS=6.91D-07 Max=2.04D-05 NDo=     1
 LinEq1:  Iter= 12 NonCon=     1 RMS=4.26D-07 Max=1.64D-05 NDo=     1
 LinEq1:  Iter= 13 NonCon=     1 RMS=1.65D-07 Max=7.81D-06 NDo=     1
 LinEq1:  Iter= 14 NonCon=     1 RMS=6.65D-08 Max=2.69D-06 NDo=     1
 LinEq1:  Iter= 15 NonCon=     1 RMS=2.68D-08 Max=8.28D-07 NDo=     1
 LinEq1:  Iter= 16 NonCon=     1 RMS=9.82D-09 Max=5.44D-07 NDo=     1
 LinEq1:  Iter= 17 NonCon=     1 RMS=4.98D-09 Max=1.63D-07 NDo=     1
 LinEq1:  Iter= 18 NonCon=     1 RMS=1.73D-09 Max=9.50D-08 NDo=     1
 LinEq1:  Iter= 19 NonCon=     1 RMS=8.33D-10 Max=4.09D-08 NDo=     1
 LinEq1:  Iter= 20 NonCon=     1 RMS=3.90D-10 Max=2.87D-08 NDo=     1
 LinEq1:  Iter= 21 NonCon=     1 RMS=1.58D-10 Max=6.42D-09 NDo=     1
 LinEq1:  Iter= 22 NonCon=     1 RMS=7.15D-11 Max=2.92D-09 NDo=     1
 LinEq1:  Iter= 23 NonCon=     1 RMS=2.10D-11 Max=1.24D-09 NDo=     1
 LinEq1:  Iter= 24 NonCon=     0 RMS=8.48D-12 Max=5.77D-10 NDo=     1
 Linear equations converged to 1.000D-10 1.000D-09 after    24 iterations.
 PCM Corrected Linear-Response - Equilibrium solvation:
 Corrected transition energy               =    1.7094          eV
 Total energy after correction             = -1090.77248343     a.u.
 NEqPCM:  Using non-equilibrium solvation (IEInf=1, Eps=  24.8520, EpsInf=   1.8526)
 Inv3:  Mode=1 IEnd=    37594800.
 Iteration    1 A*A^-1 deviation from unit magnitude is 3.22D-15 for   1941.
 Iteration    1 A*A^-1 deviation from orthogonality  is 3.11D-15 for   2227    332.
 Iteration    1 A^-1*A deviation from unit magnitude is 3.55D-15 for    359.
 Iteration    1 A^-1*A deviation from orthogonality  is 2.11D-15 for   3007   1159.
 End of Minotr F.D. properties file   721 does not exist.
 End of Minotr F.D. properties file   722 does not exist.
 End of Minotr F.D. properties file   788 does not exist.

 **********************************************************************

            Population analysis using the CI density.

 **********************************************************************

 Orbital symmetries:
       Occupied  (A) (A) (A) (A) (A) (A) (A) (A) (A) (A) (A) (A)
                 (A) (A) (A) (A) (A) (A) (A) (A) (A) (A) (A) (A)
                 (A) (A) (A) (A) (A) (A) (A) (A) (A) (A) (A) (A)
                 (A) (A) (A) (A) (A) (A) (A) (A) (A) (A) (A) (A)
                 (A) (A) (A) (A) (A) (A) (A) (A) (A) (A) (A) (A)
                 (A) (A) (A) (A) (A) (A) (A) (A) (A) (A) (A) (A)
                 (A) (A) (A) (A) (A) (A) (A) (A) (A) (A) (A) (A)
                 (A) (A) (A) (A) (A) (A) (A)
       Virtual   (A) (A) (A) (A) (A) (A) (A) (A) (A) (A) (A) (A)
                 (A) (A) (A) (A) (A) (A) (A) (A) (A) (A) (A) (A)
                 (A) (A) (A) (A) (A) (A) (A) (A) (A) (A) (A) (A)
                 (A) (A) (A) (A) (A) (A) (A) (A) (A) (A) (A) (A)
                 (A) (A) (A) (A) (A) (A) (A) (A) (A) (A) (A) (A)
                 (A) (A) (A) (A) (A) (A) (A) (A) (A) (A) (A) (A)
                 (A) (A) (A) (A) (A) (A) (A) (A) (A) (A) (A) (A)
                 (A) (A) (A) (A) (A) (A) (A) (A) (A) (A) (A) (A)
                 (A) (A) (A) (A) (A) (A) (A) (A) (A) (A) (A) (A)
                 (A) (A) (A) (A) (A) (A) (A) (A) (A) (A) (A) (A)
                 (A) (A) (A) (A) (A) (A) (A) (A) (A) (A) (A) (A)
                 (A) (A) (A) (A) (A) (A) (A) (A) (A) (A) (A) (A)
                 (A) (A) (A) (A) (A) (A) (A) (A) (A) (A) (A) (A)
                 (A) (A) (A) (A) (A) (A) (A) (A) (A) (A) (A) (A)
                 (A) (A) (A) (A) (A) (A) (A) (A) (A) (A) (A) (A)
                 (A) (A) (A) (A) (A) (A) (A) (A) (A) (A) (A) (A)
                 (A) (A) (A) (A) (A) (A) (A) (A) (A) (A) (A) (A)
                 (A) (A) (A) (A) (A) (A) (A) (A) (A) (A) (A) (A)
                 (A) (A) (A) (A) (A) (A) (A) (A) (A) (A) (A) (A)
                 (A) (A) (A) (A) (A) (A) (A) (A) (A) (A) (A) (A)
                 (A) (A) (A) (A) (A) (A) (A) (A) (A) (A) (A) (A)
                 (A) (A) (A) (A) (A) (A) (A) (A) (A) (A) (A) (A)
                 (A) (A) (A) (A) (A) (A) (A) (A) (A) (A) (A) (A)
                 (A) (A) (A) (A) (A) (A) (A) (A) (A) (A) (A) (A)
                 (A) (A) (A) (A) (A) (A) (A) (A) (A) (A) (A) (A)
                 (A) (A) (A) (A) (A) (A) (A) (A) (A) (A) (A) (A)
                 (A) (A) (A) (A) (A) (A) (A) (A) (A) (A) (A) (A)
                 (A) (A) (A) (A) (A) (A) (A) (A) (A) (A) (A) (A)
                 (A) (A) (A) (A) (A) (A) (A) (A) (A) (A) (A) (A)
                 (A) (A) (A) (A) (A) (A) (A) (A) (A) (A) (A) (A)
                 (A) (A) (A) (A) (A) (A) (A) (A) (A) (A) (A) (A)
                 (A) (A) (A) (A) (A) (A) (A) (A) (A) (A) (A) (A)
 The electronic state is 1-A.
 Alpha  occ. eigenvalues --  -19.24386 -19.23831 -14.49881 -14.46869 -14.40563
 Alpha  occ. eigenvalues --  -10.42445 -10.41951 -10.37181 -10.33681 -10.33068
 Alpha  occ. eigenvalues --  -10.32925 -10.32795 -10.32771 -10.32511 -10.32466
 Alpha  occ. eigenvalues --  -10.31967 -10.31516 -10.31496 -10.31182 -10.30634
 Alpha  occ. eigenvalues --  -10.30527 -10.30418 -10.28763 -10.28736 -10.28086
 Alpha  occ. eigenvalues --   -1.14764  -1.12312  -1.04168  -1.02965  -0.99448
 Alpha  occ. eigenvalues --   -0.97803  -0.92928  -0.90079  -0.87665  -0.85433
 Alpha  occ. eigenvalues --   -0.84392  -0.82444  -0.81070  -0.78921  -0.76647
 Alpha  occ. eigenvalues --   -0.75255  -0.73923  -0.72251  -0.70928  -0.69616
 Alpha  occ. eigenvalues --   -0.66348  -0.66127  -0.64838  -0.62221  -0.61056
 Alpha  occ. eigenvalues --   -0.60220  -0.58439  -0.56782  -0.56596  -0.55966
 Alpha  occ. eigenvalues --   -0.55605  -0.55140  -0.54154  -0.53207  -0.53053
 Alpha  occ. eigenvalues --   -0.52788  -0.52149  -0.51564  -0.50941  -0.49716
 Alpha  occ. eigenvalues --   -0.49103  -0.48920  -0.48569  -0.48498  -0.47961
 Alpha  occ. eigenvalues --   -0.46554  -0.46396  -0.45985  -0.44904  -0.44638
 Alpha  occ. eigenvalues --   -0.44329  -0.43563  -0.42889  -0.42614  -0.42518
 Alpha  occ. eigenvalues --   -0.42127  -0.41062  -0.39711  -0.39472  -0.37140
 Alpha  occ. eigenvalues --   -0.35403  -0.35301  -0.34115  -0.33819  -0.27937
 Alpha  occ. eigenvalues --   -0.24998
 Alpha virt. eigenvalues --   -0.03460   0.03725   0.04112   0.07995   0.13503
 Alpha virt. eigenvalues --    0.14928   0.15260   0.16486   0.16676   0.17230
 Alpha virt. eigenvalues --    0.17908   0.17993   0.18067   0.18923   0.19044
 Alpha virt. eigenvalues --    0.19445   0.20324   0.21419   0.21971   0.22518
 Alpha virt. eigenvalues --    0.22594   0.22818   0.23228   0.23484   0.23645
 Alpha virt. eigenvalues --    0.24363   0.24789   0.25121   0.25309   0.25598
 Alpha virt. eigenvalues --    0.25708   0.26520   0.28090   0.28257   0.28836
 Alpha virt. eigenvalues --    0.29465   0.30229   0.30983   0.31819   0.32533
 Alpha virt. eigenvalues --    0.32756   0.33077   0.33699   0.33804   0.34654
 Alpha virt. eigenvalues --    0.35244   0.35584   0.36189   0.36739   0.37937
 Alpha virt. eigenvalues --    0.38149   0.39217   0.40882   0.41824   0.42675
 Alpha virt. eigenvalues --    0.43224   0.43991   0.46938   0.49160   0.49872
 Alpha virt. eigenvalues --    0.50244   0.51224   0.51315   0.52146   0.52891
 Alpha virt. eigenvalues --    0.53021   0.53268   0.53561   0.54065   0.54394
 Alpha virt. eigenvalues --    0.54502   0.54967   0.55619   0.56020   0.56915
 Alpha virt. eigenvalues --    0.57654   0.57789   0.58234   0.58667   0.59573
 Alpha virt. eigenvalues --    0.61272   0.61719   0.62586   0.63502   0.63815
 Alpha virt. eigenvalues --    0.64996   0.66221   0.67125   0.67562   0.68492
 Alpha virt. eigenvalues --    0.69210   0.69665   0.70444   0.71071   0.71662
 Alpha virt. eigenvalues --    0.72132   0.72689   0.72964   0.73345   0.73469
 Alpha virt. eigenvalues --    0.73653   0.74166   0.74509   0.74990   0.75275
 Alpha virt. eigenvalues --    0.75449   0.75897   0.76225   0.76339   0.76629
 Alpha virt. eigenvalues --    0.76861   0.77274   0.77597   0.77752   0.78303
 Alpha virt. eigenvalues --    0.78424   0.78493   0.79167   0.79413   0.79589
 Alpha virt. eigenvalues --    0.79977   0.80389   0.80536   0.80813   0.81120
 Alpha virt. eigenvalues --    0.81557   0.81580   0.82224   0.82666   0.83596
 Alpha virt. eigenvalues --    0.84203   0.84600   0.85707   0.86483   0.86642
 Alpha virt. eigenvalues --    0.87577   0.88059   0.89872   0.90751   0.91137
 Alpha virt. eigenvalues --    0.92350   0.93088   0.94219   0.95770   0.96796
 Alpha virt. eigenvalues --    0.98030   1.01652   1.02284   1.03873   1.04467
 Alpha virt. eigenvalues --    1.06239   1.07017   1.08255   1.10110   1.10334
 Alpha virt. eigenvalues --    1.10732   1.11559   1.13743   1.15625   1.15952
 Alpha virt. eigenvalues --    1.17496   1.17997   1.18366   1.21019   1.22064
 Alpha virt. eigenvalues --    1.23692   1.24841   1.25487   1.26593   1.27442
 Alpha virt. eigenvalues --    1.27917   1.28780   1.29291   1.29559   1.30796
 Alpha virt. eigenvalues --    1.31100   1.31756   1.32224   1.32748   1.34629
 Alpha virt. eigenvalues --    1.35866   1.36876   1.38622   1.38882   1.39791
 Alpha virt. eigenvalues --    1.41620   1.41934   1.43143   1.43843   1.45264
 Alpha virt. eigenvalues --    1.45887   1.46688   1.48835   1.49700   1.50425
 Alpha virt. eigenvalues --    1.52159   1.54865   1.56909   1.57831   1.58278
 Alpha virt. eigenvalues --    1.59051   1.59795   1.60687   1.61732   1.61992
 Alpha virt. eigenvalues --    1.62437   1.63006   1.63540   1.67244   1.68662
 Alpha virt. eigenvalues --    1.70816   1.74071   1.74691   1.76380   1.77224
 Alpha virt. eigenvalues --    1.77666   1.78206   1.79061   1.79384   1.80588
 Alpha virt. eigenvalues --    1.81627   1.81930   1.82560   1.83191   1.84090
 Alpha virt. eigenvalues --    1.84481   1.84682   1.85150   1.85546   1.85901
 Alpha virt. eigenvalues --    1.85989   1.86543   1.86844   1.88149   1.88376
 Alpha virt. eigenvalues --    1.88617   1.89341   1.89395   1.89878   1.90983
 Alpha virt. eigenvalues --    1.91580   1.93138   1.93405   1.93806   1.94765
 Alpha virt. eigenvalues --    1.94907   1.95505   1.95872   1.96159   1.97075
 Alpha virt. eigenvalues --    1.97554   1.97852   1.98559   1.99285   1.99733
 Alpha virt. eigenvalues --    2.00533   2.01277   2.01893   2.02520   2.03051
 Alpha virt. eigenvalues --    2.03682   2.04203   2.05256   2.05680   2.05925
 Alpha virt. eigenvalues --    2.06800   2.07906   2.09571   2.10268   2.10617
 Alpha virt. eigenvalues --    2.11268   2.12135   2.12514   2.13968   2.14484
 Alpha virt. eigenvalues --    2.16090   2.17494   2.18399   2.18799   2.19545
 Alpha virt. eigenvalues --    2.20139   2.20975   2.22697   2.24135   2.24574
 Alpha virt. eigenvalues --    2.25024   2.28208   2.29276   2.30403   2.30930
 Alpha virt. eigenvalues --    2.31196   2.32127   2.32708   2.33094   2.34687
 Alpha virt. eigenvalues --    2.37099   2.38396   2.38851   2.40183   2.40632
 Alpha virt. eigenvalues --    2.41313   2.42143   2.44453   2.46205   2.47525
 Alpha virt. eigenvalues --    2.49126   2.50403   2.50427   2.51620   2.51999
 Alpha virt. eigenvalues --    2.53350   2.53695   2.54569   2.56097   2.56880
 Alpha virt. eigenvalues --    2.58151   2.58503   2.59734   2.61099   2.61710
 Alpha virt. eigenvalues --    2.64179   2.66029   2.66402   2.67204   2.67507
 Alpha virt. eigenvalues --    2.69349   2.70897   2.71846   2.72168   2.74007
 Alpha virt. eigenvalues --    2.74826   2.76840   2.77310   2.78546   2.79059
 Alpha virt. eigenvalues --    2.79622   2.80315   2.81151   2.82418   2.83291
 Alpha virt. eigenvalues --    2.83926   2.85402   2.87423   2.88212   2.90195
 Alpha virt. eigenvalues --    2.90942   2.92360   2.93373   2.95111   2.95770
 Alpha virt. eigenvalues --    2.96588   2.98869   3.00219   3.01666   3.02013
 Alpha virt. eigenvalues --    3.03036   3.03978   3.04406   3.05804   3.07094
 Alpha virt. eigenvalues --    3.07712   3.08353   3.08890   3.10794   3.12863
 Alpha virt. eigenvalues --    3.14499   3.16036   3.16983   3.17893   3.18644
 Alpha virt. eigenvalues --    3.19140   3.19901   3.22234   3.24640   3.30428
 Alpha virt. eigenvalues --    3.32191   3.40500   3.45044   3.49319   3.55266
 Alpha virt. eigenvalues --    3.59779   3.68129   3.74998   3.77553
          Condensed to atoms (all electrons):
               1          2          3          4          5          6
     1  C    4.521721   0.404851   0.375741   0.404827   0.000199   0.000001
     2  H    0.404851   0.522074  -0.008670  -0.014910  -0.000006  -0.000000
     3  H    0.375741  -0.008670   0.526772  -0.004455  -0.000904  -0.000015
     4  H    0.404827  -0.014910  -0.004455   0.507157  -0.000003  -0.000000
     5  C    0.000199  -0.000006  -0.000904  -0.000003   5.393055   0.286061
     6  C    0.000001  -0.000000  -0.000015  -0.000000   0.286061   5.241096
     7  C    0.000000   0.000000  -0.000000   0.000000  -0.014914   0.311673
     8  C   -0.000000   0.000000   0.000001   0.000000  -0.010721   0.326600
     9  C    0.000200  -0.000005  -0.000600  -0.000011   0.265281   0.012801
    10  C   -0.000698   0.000015   0.002462   0.000018   0.309136   0.006374
    11  H   -0.000017  -0.000010   0.002282   0.000013  -0.060403   0.012929
    12  C   -0.000019   0.000001   0.000008   0.000000   0.028925  -0.110637
    13  H   -0.000003   0.000000   0.000001   0.000000   0.014507  -0.001578
    14  C   -0.000000   0.000000   0.000000   0.000000   0.014174  -0.066097
    15  N    0.000000  -0.000000  -0.000000   0.000000  -0.001390  -0.020311
    16  C   -0.000000   0.000000  -0.000001   0.000000  -0.108678   0.015755
    17  H    0.000000   0.000000   0.000000  -0.000000  -0.001148   0.011951
    18  C   -0.000012   0.000000   0.000109   0.000001   0.059471  -0.113804
    19  H   -0.000001   0.000000   0.000005   0.000000   0.013532  -0.000758
    20  N   -0.006717   0.000134   0.022289   0.000310  -0.096005   0.004939
    21  H    0.002503  -0.000027  -0.004380  -0.000396  -0.024515   0.000342
    22  C    0.000000  -0.000000  -0.000006  -0.000000  -0.115246   0.011903
    23  H    0.000000  -0.000000  -0.000000  -0.000000  -0.001023   0.012250
    24  C    0.000000  -0.000000  -0.000000  -0.000000   0.012060  -0.065842
    25  O    0.000000  -0.000000  -0.000000  -0.000000  -0.000077   0.001000
    26  O   -0.000000   0.000000   0.000000   0.000000  -0.000067   0.000874
    27  C   -0.004275  -0.000084  -0.003807   0.000586   0.009819  -0.000046
    28  H   -0.000300   0.000013   0.000552   0.000010  -0.000252  -0.000038
    29  H    0.000364  -0.000004  -0.000425  -0.000085  -0.000259   0.000036
    30  N    0.287278  -0.017263  -0.016514  -0.015065  -0.000011  -0.000000
    31  C   -0.021666   0.003568  -0.001529  -0.003657  -0.000161   0.000003
    32  H    0.002722  -0.000235   0.000689  -0.000023   0.000005  -0.000000
    33  H    0.001047   0.000240  -0.002002   0.000463   0.000011   0.000001
    34  C   -0.028002   0.000467   0.000079   0.002185   0.000003  -0.000000
    35  H   -0.001476   0.000038   0.000135   0.000405  -0.000004  -0.000001
    36  H   -0.004086   0.000313   0.000476  -0.000347  -0.000000  -0.000000
    37  H    0.003457   0.000336  -0.000213  -0.000231   0.000001   0.000000
    38  C   -0.000000   0.000000  -0.000000   0.000000   0.000086  -0.000014
    39  H    0.000000  -0.000000  -0.000000  -0.000000   0.000003  -0.000227
    40  H   -0.000000   0.000000   0.000000  -0.000000   0.000003  -0.000230
    41  C   -0.000000   0.000000   0.000000   0.000000  -0.000004   0.000179
    42  H   -0.000000   0.000000   0.000000  -0.000000   0.000002  -0.000028
    43  H    0.000000  -0.000000  -0.000000  -0.000000   0.000002  -0.000031
    44  C    0.000000  -0.000000  -0.000000  -0.000000  -0.000000   0.000000
    45  H    0.000000  -0.000000  -0.000000   0.000000  -0.000000   0.000000
    46  H   -0.000000  -0.000000   0.000000  -0.000000  -0.000000   0.000000
    47  C   -0.000000   0.000000   0.000000   0.000000   0.000000   0.000000
    48  H    0.000000  -0.000000  -0.000000   0.000000  -0.000000  -0.000000
    49  H    0.000000  -0.000000  -0.000000   0.000000  -0.000000   0.000000
    50  H   -0.000000   0.000000   0.000000  -0.000000  -0.000000   0.000000
               7          8          9         10         11         12
     1  C    0.000000  -0.000000   0.000200  -0.000698  -0.000017  -0.000019
     2  H    0.000000   0.000000  -0.000005   0.000015  -0.000010   0.000001
     3  H   -0.000000   0.000001  -0.000600   0.002462   0.002282   0.000008
     4  H    0.000000   0.000000  -0.000011   0.000018   0.000013   0.000000
     5  C   -0.014914  -0.010721   0.265281   0.309136  -0.060403   0.028925
     6  C    0.311673   0.326600   0.012801   0.006374   0.012929  -0.110637
     7  C    5.909110  -0.088463  -0.142292   0.022251  -0.000072   0.048961
     8  C   -0.088463   5.831664   0.025511  -0.127192  -0.001419  -0.003051
     9  C   -0.142292   0.025511   5.338692  -0.157276  -0.025489   0.228413
    10  C    0.022251  -0.127192  -0.157276   5.363213   0.457419   0.016628
    11  H   -0.000072  -0.001419  -0.025489   0.457419   0.651942   0.000027
    12  C    0.048961  -0.003051   0.228413   0.016628   0.000027   5.309210
    13  H    0.015688   0.000017  -0.079548  -0.000101   0.000011   0.469400
    14  C   -0.045771   0.243422   0.000194  -0.002662   0.000024  -0.000274
    15  N   -0.116763  -0.115934  -0.000034  -0.000024  -0.000000   0.000064
    16  C    0.204030   0.014494   0.092490  -0.002755  -0.000081   0.268977
    17  H   -0.090052  -0.000454   0.014710   0.000025   0.000000  -0.061547
    18  C   -0.002976   0.049286   0.016951   0.267376  -0.058269  -0.000430
    19  H    0.000035   0.013277  -0.000343  -0.065460  -0.011791   0.000003
    20  N   -0.000337  -0.000051   0.414666   0.000303   0.002018  -0.090465
    21  H   -0.000147   0.000035  -0.013715   0.008010  -0.000602   0.006858
    22  C    0.013501   0.245746  -0.002438   0.061810   0.012969   0.000130
    23  H   -0.000410  -0.081872   0.000034   0.012860  -0.000212   0.000000
    24  C    0.247147  -0.043931  -0.001622   0.000135   0.000002   0.021767
    25  O    0.000267  -0.143128   0.000001  -0.000045   0.000000  -0.000000
    26  O   -0.149288   0.000246  -0.000031   0.000001  -0.000000   0.002139
    27  C    0.000011   0.000004  -0.049631  -0.000211   0.000134  -0.003677
    28  H   -0.000005  -0.000000   0.002438   0.000117   0.000072   0.002269
    29  H   -0.000078   0.000000  -0.014724  -0.000116  -0.000063   0.006686
    30  N    0.000000  -0.000000   0.000014   0.000030  -0.000026  -0.000142
    31  C    0.000002  -0.000000   0.006217  -0.000078  -0.000000   0.001133
    32  H    0.000000   0.000000  -0.000078   0.000002   0.000001   0.000001
    33  H   -0.000000  -0.000000  -0.000243  -0.000029  -0.000025   0.000017
    34  C   -0.000000  -0.000000  -0.000029   0.000000   0.000003   0.000009
    35  H   -0.000000   0.000000   0.000170  -0.000000   0.000003   0.000024
    36  H    0.000000  -0.000000  -0.000005   0.000000   0.000000   0.000000
    37  H    0.000000  -0.000000  -0.000010  -0.000000  -0.000000  -0.000006
    38  C    0.009021   0.008723  -0.000001   0.000000   0.000000   0.000001
    39  H    0.004314  -0.000243   0.000001  -0.000000   0.000000  -0.000004
    40  H   -0.000239   0.004265  -0.000000   0.000001   0.000000  -0.000000
    41  C   -0.001353  -0.001322  -0.000000  -0.000000   0.000000   0.000000
    42  H   -0.000084   0.000084   0.000000  -0.000000   0.000000  -0.000001
    43  H    0.000085  -0.000098  -0.000000   0.000000  -0.000000  -0.000000
    44  C   -0.000002  -0.000001   0.000000   0.000000  -0.000000   0.000000
    45  H   -0.000000  -0.000002   0.000000  -0.000000  -0.000000  -0.000000
    46  H   -0.000002  -0.000000  -0.000000   0.000000  -0.000000   0.000000
    47  C   -0.000000  -0.000000  -0.000000  -0.000000   0.000000  -0.000000
    48  H    0.000000   0.000000   0.000000   0.000000  -0.000000   0.000000
    49  H   -0.000000  -0.000000  -0.000000  -0.000000  -0.000000   0.000000
    50  H   -0.000000  -0.000000  -0.000000  -0.000000   0.000000   0.000000
              13         14         15         16         17         18
     1  C   -0.000003  -0.000000   0.000000  -0.000000   0.000000  -0.000012
     2  H    0.000000   0.000000  -0.000000   0.000000   0.000000   0.000000
     3  H    0.000001   0.000000  -0.000000  -0.000001   0.000000   0.000109
     4  H    0.000000   0.000000   0.000000   0.000000  -0.000000   0.000001
     5  C    0.014507   0.014174  -0.001390  -0.108678  -0.001148   0.059471
     6  C   -0.001578  -0.066097  -0.020311   0.015755   0.011951  -0.113804
     7  C    0.015688  -0.045771  -0.116763   0.204030  -0.090052  -0.002976
     8  C    0.000017   0.243422  -0.115934   0.014494  -0.000454   0.049286
     9  C   -0.079548   0.000194  -0.000034   0.092490   0.014710   0.016951
    10  C   -0.000101  -0.002662  -0.000024  -0.002755   0.000025   0.267376
    11  H    0.000011   0.000024  -0.000000  -0.000081   0.000000  -0.058269
    12  C    0.469400  -0.000274   0.000064   0.268977  -0.061547  -0.000430
    13  H    0.655613   0.000001   0.000000  -0.069030  -0.012295   0.000002
    14  C    0.000001   4.726582   0.306870   0.000944   0.000055   0.021914
    15  N    0.000000   0.306870   7.032692   0.011188   0.001164   0.000041
    16  C   -0.069030   0.000944   0.011188   5.243916   0.463114   0.000160
    17  H   -0.012295   0.000055   0.001164   0.463114   0.656930   0.000001
    18  C    0.000002   0.021914   0.000041   0.000160   0.000001   5.122506
    19  H   -0.000000  -0.000423   0.000001  -0.000000   0.000000   0.453588
    20  N   -0.014777   0.000001  -0.000000   0.006947  -0.000091   0.000921
    21  H   -0.000249   0.000001  -0.000000   0.000205   0.000006  -0.000263
    22  C    0.000000  -0.075966   0.010213  -0.000437   0.000002   0.296540
    23  H    0.000000  -0.012041   0.001106   0.000001  -0.000000  -0.064641
    24  C   -0.000450  -0.031232   0.300882  -0.074055  -0.011373  -0.000252
    25  O   -0.000000   0.733443  -0.108795   0.000008   0.000000   0.001889
    26  O   -0.000026  -0.000442  -0.109266   0.021241   0.016668  -0.000000
    27  C    0.005408  -0.000000   0.000000   0.000453  -0.000021  -0.000022
    28  H    0.000401   0.000000   0.000000  -0.000182   0.000007   0.000005
    29  H   -0.001751  -0.000000   0.000000   0.001193   0.000035   0.000000
    30  N    0.000004  -0.000000  -0.000000  -0.000001   0.000000   0.000000
    31  C    0.000384   0.000000   0.000000  -0.000017  -0.000000  -0.000002
    32  H    0.000036  -0.000000   0.000000  -0.000001   0.000000   0.000000
    33  H   -0.000014   0.000000  -0.000000   0.000003   0.000000  -0.000001
    34  C   -0.000040   0.000000  -0.000000   0.000001  -0.000000  -0.000000
    35  H    0.000006   0.000000   0.000000  -0.000002   0.000000   0.000000
    36  H    0.000000   0.000000  -0.000000   0.000000  -0.000000   0.000000
    37  H   -0.000034  -0.000000  -0.000000  -0.000000  -0.000000  -0.000000
    38  C   -0.000000  -0.023176   0.232009  -0.000434  -0.000049  -0.000000
    39  H    0.000000   0.005670  -0.025262  -0.000010  -0.000016  -0.000000
    40  H    0.000000  -0.009781  -0.025257   0.000005  -0.000001  -0.000004
    41  C    0.000000  -0.005882  -0.022490   0.000028   0.000008   0.000000
    42  H    0.000000  -0.000849  -0.009224  -0.000018  -0.000017  -0.000000
    43  H    0.000000   0.006144  -0.009110  -0.000003   0.000000  -0.000001
    44  C   -0.000000  -0.000057   0.004581  -0.000000   0.000000   0.000000
    45  H    0.000000  -0.000081   0.000090   0.000000   0.000000   0.000000
    46  H   -0.000000   0.000042   0.000090   0.000000  -0.000000  -0.000000
    47  C    0.000000  -0.000011  -0.000134   0.000000   0.000000  -0.000000
    48  H   -0.000000   0.000000   0.000003   0.000000   0.000000   0.000000
    49  H   -0.000000  -0.000000   0.000001  -0.000000   0.000000   0.000000
    50  H   -0.000000  -0.000003   0.000001  -0.000000  -0.000000   0.000000
              19         20         21         22         23         24
     1  C   -0.000001  -0.006717   0.002503   0.000000   0.000000   0.000000
     2  H    0.000000   0.000134  -0.000027  -0.000000  -0.000000  -0.000000
     3  H    0.000005   0.022289  -0.004380  -0.000006  -0.000000  -0.000000
     4  H    0.000000   0.000310  -0.000396  -0.000000  -0.000000  -0.000000
     5  C    0.013532  -0.096005  -0.024515  -0.115246  -0.001023   0.012060
     6  C   -0.000758   0.004939   0.000342   0.011903   0.012250  -0.065842
     7  C    0.000035  -0.000337  -0.000147   0.013501  -0.000410   0.247147
     8  C    0.013277  -0.000051   0.000035   0.245746  -0.081872  -0.043931
     9  C   -0.000343   0.414666  -0.013715  -0.002438   0.000034  -0.001622
    10  C   -0.065460   0.000303   0.008010   0.061810   0.012860   0.000135
    11  H   -0.011791   0.002018  -0.000602   0.012969  -0.000212   0.000002
    12  C    0.000003  -0.090465   0.006858   0.000130   0.000000   0.021767
    13  H   -0.000000  -0.014777  -0.000249   0.000000   0.000000  -0.000450
    14  C   -0.000423   0.000001   0.000001  -0.075966  -0.012041  -0.031232
    15  N    0.000001  -0.000000  -0.000000   0.010213   0.001106   0.300882
    16  C   -0.000000   0.006947   0.000205  -0.000437   0.000001  -0.074055
    17  H    0.000000  -0.000091   0.000006   0.000002  -0.000000  -0.011373
    18  C    0.453588   0.000921  -0.000263   0.296540  -0.064641  -0.000252
    19  H    0.650880   0.000003   0.000030  -0.070262  -0.010788   0.000001
    20  N    0.000003   6.450965   0.336498  -0.000036   0.000000   0.000009
    21  H    0.000030   0.336498   0.539884  -0.000038  -0.000000  -0.000001
    22  C   -0.070262  -0.000036  -0.000038   5.212097   0.460869   0.000962
    23  H   -0.010788   0.000000  -0.000000   0.460869   0.654274   0.000051
    24  C    0.000001   0.000009  -0.000001   0.000962   0.000051   4.727870
    25  O   -0.000015   0.000000  -0.000000   0.018656   0.016211  -0.000448
    26  O    0.000000  -0.000000  -0.000000   0.000007   0.000000   0.738903
    27  C   -0.000000   0.338698  -0.027900   0.000002   0.000000   0.000000
    28  H   -0.000000  -0.026725  -0.009388  -0.000000  -0.000000   0.000000
    29  H    0.000000  -0.023768   0.007886  -0.000000   0.000000   0.000001
    30  N    0.000000   0.005334  -0.001686  -0.000000  -0.000000   0.000000
    31  C    0.000000  -0.059233  -0.000734   0.000000  -0.000000   0.000000
    32  H    0.000000   0.004202  -0.000481  -0.000000   0.000000  -0.000000
    33  H   -0.000000  -0.006151   0.005401   0.000000  -0.000000   0.000000
    34  C    0.000000  -0.000331   0.000055   0.000000   0.000000   0.000000
    35  H   -0.000000   0.000672  -0.000026   0.000000   0.000000  -0.000000
    36  H    0.000000  -0.000003  -0.000002  -0.000000  -0.000000  -0.000000
    37  H    0.000000  -0.000075   0.000002   0.000000  -0.000000  -0.000000
    38  C   -0.000000   0.000000   0.000000  -0.000380  -0.000043  -0.022753
    39  H    0.000000   0.000000   0.000000   0.000005  -0.000001  -0.009616
    40  H   -0.000000   0.000000  -0.000000  -0.000021  -0.000015   0.005760
    41  C    0.000000   0.000000  -0.000000   0.000025   0.000007  -0.006093
    42  H   -0.000000  -0.000000  -0.000000  -0.000002   0.000000   0.006215
    43  H    0.000000  -0.000000   0.000000  -0.000012  -0.000015  -0.000848
    44  C   -0.000000  -0.000000   0.000000  -0.000000   0.000000  -0.000060
    45  H    0.000000   0.000000   0.000000   0.000000  -0.000000   0.000043
    46  H    0.000000  -0.000000  -0.000000   0.000000   0.000000  -0.000083
    47  C    0.000000   0.000000  -0.000000   0.000000   0.000000  -0.000011
    48  H   -0.000000  -0.000000   0.000000   0.000000   0.000000   0.000000
    49  H   -0.000000   0.000000   0.000000  -0.000000  -0.000000  -0.000003
    50  H   -0.000000  -0.000000  -0.000000  -0.000000   0.000000  -0.000000
              25         26         27         28         29         30
     1  C    0.000000  -0.000000  -0.004275  -0.000300   0.000364   0.287278
     2  H   -0.000000   0.000000  -0.000084   0.000013  -0.000004  -0.017263
     3  H   -0.000000   0.000000  -0.003807   0.000552  -0.000425  -0.016514
     4  H   -0.000000   0.000000   0.000586   0.000010  -0.000085  -0.015065
     5  C   -0.000077  -0.000067   0.009819  -0.000252  -0.000259  -0.000011
     6  C    0.001000   0.000874  -0.000046  -0.000038   0.000036  -0.000000
     7  C    0.000267  -0.149288   0.000011  -0.000005  -0.000078   0.000000
     8  C   -0.143128   0.000246   0.000004  -0.000000   0.000000  -0.000000
     9  C    0.000001  -0.000031  -0.049631   0.002438  -0.014724   0.000014
    10  C   -0.000045   0.000001  -0.000211   0.000117  -0.000116   0.000030
    11  H    0.000000  -0.000000   0.000134   0.000072  -0.000063  -0.000026
    12  C   -0.000000   0.002139  -0.003677   0.002269   0.006686  -0.000142
    13  H   -0.000000  -0.000026   0.005408   0.000401  -0.001751   0.000004
    14  C    0.733443  -0.000442  -0.000000   0.000000  -0.000000  -0.000000
    15  N   -0.108795  -0.109266   0.000000   0.000000   0.000000  -0.000000
    16  C    0.000008   0.021241   0.000453  -0.000182   0.001193  -0.000001
    17  H    0.000000   0.016668  -0.000021   0.000007   0.000035   0.000000
    18  C    0.001889  -0.000000  -0.000022   0.000005   0.000000   0.000000
    19  H   -0.000015   0.000000  -0.000000  -0.000000   0.000000   0.000000
    20  N    0.000000  -0.000000   0.338698  -0.026725  -0.023768   0.005334
    21  H   -0.000000  -0.000000  -0.027900  -0.009388   0.007886  -0.001686
    22  C    0.018656   0.000007   0.000002  -0.000000  -0.000000  -0.000000
    23  H    0.016211   0.000000   0.000000  -0.000000   0.000000  -0.000000
    24  C   -0.000448   0.738903   0.000000   0.000000   0.000001   0.000000
    25  O    7.861291  -0.000020   0.000000  -0.000000   0.000000   0.000000
    26  O   -0.000020   7.862439   0.000000   0.000000   0.000000  -0.000000
    27  C    0.000000   0.000000   4.529396   0.401668   0.385332  -0.048867
    28  H   -0.000000   0.000000   0.401668   0.620558  -0.031093   0.005087
    29  H    0.000000   0.000000   0.385332  -0.031093   0.597699  -0.010102
    30  N    0.000000  -0.000000  -0.048867   0.005087  -0.010102   6.611553
    31  C    0.000000   0.000000   0.411978  -0.033794  -0.007503   0.277729
    32  H    0.000000  -0.000000  -0.002580  -0.001121  -0.007058  -0.014191
    33  H   -0.000000  -0.000000  -0.012175  -0.006669   0.005120  -0.023760
    34  C    0.000000  -0.000000  -0.005323  -0.000060   0.007180   0.282057
    35  H   -0.000000   0.000000   0.000438   0.000100  -0.001011  -0.015127
    36  H    0.000000  -0.000000   0.000415  -0.000010  -0.000081  -0.013188
    37  H    0.000000  -0.000000  -0.004702  -0.000217   0.003510  -0.019120
    38  C    0.001926   0.002342  -0.000000   0.000000   0.000000  -0.000000
    39  H    0.000585   0.022222   0.000000   0.000000  -0.000000   0.000000
    40  H    0.022257   0.000592  -0.000000  -0.000000   0.000000  -0.000000
    41  C   -0.006824  -0.007164   0.000000   0.000000  -0.000000   0.000000
    42  H    0.000069   0.008522  -0.000000  -0.000000   0.000000  -0.000000
    43  H    0.008167   0.000075  -0.000000  -0.000000   0.000000   0.000000
    44  C   -0.000196  -0.000191   0.000000  -0.000000   0.000000  -0.000000
    45  H    0.000027  -0.000006   0.000000   0.000000  -0.000000   0.000000
    46  H   -0.000006   0.000028  -0.000000  -0.000000   0.000000  -0.000000
    47  C    0.000001   0.000001   0.000000   0.000000  -0.000000   0.000000
    48  H   -0.000000  -0.000000   0.000000  -0.000000   0.000000   0.000000
    49  H    0.000000  -0.000008   0.000000   0.000000  -0.000000   0.000000
    50  H   -0.000007   0.000000   0.000000  -0.000000   0.000000  -0.000000
              31         32         33         34         35         36
     1  C   -0.021666   0.002722   0.001047  -0.028002  -0.001476  -0.004086
     2  H    0.003568  -0.000235   0.000240   0.000467   0.000038   0.000313
     3  H   -0.001529   0.000689  -0.002002   0.000079   0.000135   0.000476
     4  H   -0.003657  -0.000023   0.000463   0.002185   0.000405  -0.000347
     5  C   -0.000161   0.000005   0.000011   0.000003  -0.000004  -0.000000
     6  C    0.000003  -0.000000   0.000001  -0.000000  -0.000001  -0.000000
     7  C    0.000002   0.000000  -0.000000  -0.000000  -0.000000   0.000000
     8  C   -0.000000   0.000000  -0.000000  -0.000000   0.000000  -0.000000
     9  C    0.006217  -0.000078  -0.000243  -0.000029   0.000170  -0.000005
    10  C   -0.000078   0.000002  -0.000029   0.000000  -0.000000   0.000000
    11  H   -0.000000   0.000001  -0.000025   0.000003   0.000003   0.000000
    12  C    0.001133   0.000001   0.000017   0.000009   0.000024   0.000000
    13  H    0.000384   0.000036  -0.000014  -0.000040   0.000006   0.000000
    14  C    0.000000  -0.000000   0.000000   0.000000   0.000000   0.000000
    15  N    0.000000   0.000000  -0.000000  -0.000000   0.000000  -0.000000
    16  C   -0.000017  -0.000001   0.000003   0.000001  -0.000002   0.000000
    17  H   -0.000000   0.000000   0.000000  -0.000000   0.000000  -0.000000
    18  C   -0.000002   0.000000  -0.000001  -0.000000   0.000000   0.000000
    19  H    0.000000   0.000000  -0.000000   0.000000  -0.000000   0.000000
    20  N   -0.059233   0.004202  -0.006151  -0.000331   0.000672  -0.000003
    21  H   -0.000734  -0.000481   0.005401   0.000055  -0.000026  -0.000002
    22  C    0.000000  -0.000000   0.000000   0.000000   0.000000  -0.000000
    23  H   -0.000000   0.000000  -0.000000   0.000000   0.000000  -0.000000
    24  C    0.000000  -0.000000   0.000000   0.000000  -0.000000  -0.000000
    25  O    0.000000   0.000000  -0.000000   0.000000  -0.000000   0.000000
    26  O    0.000000  -0.000000  -0.000000  -0.000000   0.000000  -0.000000
    27  C    0.411978  -0.002580  -0.012175  -0.005323   0.000438   0.000415
    28  H   -0.033794  -0.001121  -0.006669  -0.000060   0.000100  -0.000010
    29  H   -0.007503  -0.007058   0.005120   0.007180  -0.001011  -0.000081
    30  N    0.277729  -0.014191  -0.023760   0.282057  -0.015127  -0.013188
    31  C    4.573637   0.389075   0.405421  -0.028490  -0.002146   0.002455
    32  H    0.389075   0.529424  -0.016820  -0.003971   0.000599  -0.000239
    33  H    0.405421  -0.016820   0.540476   0.003998  -0.000164  -0.000259
    34  C   -0.028490  -0.003971   0.003998   4.505855   0.404631   0.406890
    35  H   -0.002146   0.000599  -0.000164   0.404631   0.501330  -0.006030
    36  H    0.002455  -0.000239  -0.000259   0.406890  -0.006030   0.499296
    37  H    0.005348   0.000350   0.000298   0.408167  -0.013059  -0.013971
    38  C   -0.000000  -0.000000   0.000000   0.000000  -0.000000   0.000000
    39  H   -0.000000  -0.000000   0.000000   0.000000  -0.000000   0.000000
    40  H    0.000000   0.000000  -0.000000  -0.000000   0.000000  -0.000000
    41  C   -0.000000   0.000000  -0.000000  -0.000000   0.000000   0.000000
    42  H   -0.000000  -0.000000  -0.000000  -0.000000   0.000000  -0.000000
    43  H    0.000000  -0.000000   0.000000   0.000000  -0.000000   0.000000
    44  C    0.000000  -0.000000   0.000000   0.000000  -0.000000  -0.000000
    45  H    0.000000   0.000000   0.000000   0.000000  -0.000000   0.000000
    46  H   -0.000000  -0.000000  -0.000000  -0.000000   0.000000  -0.000000
    47  C   -0.000000   0.000000  -0.000000  -0.000000  -0.000000   0.000000
    48  H    0.000000   0.000000   0.000000   0.000000   0.000000   0.000000
    49  H    0.000000   0.000000   0.000000   0.000000  -0.000000   0.000000
    50  H   -0.000000   0.000000  -0.000000  -0.000000   0.000000  -0.000000
              37         38         39         40         41         42
     1  C    0.003457  -0.000000   0.000000  -0.000000  -0.000000  -0.000000
     2  H    0.000336   0.000000  -0.000000   0.000000   0.000000   0.000000
     3  H   -0.000213  -0.000000  -0.000000   0.000000   0.000000   0.000000
     4  H   -0.000231   0.000000  -0.000000  -0.000000   0.000000  -0.000000
     5  C    0.000001   0.000086   0.000003   0.000003  -0.000004   0.000002
     6  C    0.000000  -0.000014  -0.000227  -0.000230   0.000179  -0.000028
     7  C    0.000000   0.009021   0.004314  -0.000239  -0.001353  -0.000084
     8  C   -0.000000   0.008723  -0.000243   0.004265  -0.001322   0.000084
     9  C   -0.000010  -0.000001   0.000001  -0.000000  -0.000000   0.000000
    10  C   -0.000000   0.000000  -0.000000   0.000001  -0.000000  -0.000000
    11  H   -0.000000   0.000000   0.000000   0.000000   0.000000   0.000000
    12  C   -0.000006   0.000001  -0.000004  -0.000000   0.000000  -0.000001
    13  H   -0.000034  -0.000000   0.000000   0.000000   0.000000   0.000000
    14  C   -0.000000  -0.023176   0.005670  -0.009781  -0.005882  -0.000849
    15  N   -0.000000   0.232009  -0.025262  -0.025257  -0.022490  -0.009224
    16  C   -0.000000  -0.000434  -0.000010   0.000005   0.000028  -0.000018
    17  H   -0.000000  -0.000049  -0.000016  -0.000001   0.000008  -0.000017
    18  C   -0.000000  -0.000000  -0.000000  -0.000004   0.000000  -0.000000
    19  H    0.000000  -0.000000   0.000000  -0.000000   0.000000  -0.000000
    20  N   -0.000075   0.000000   0.000000   0.000000   0.000000  -0.000000
    21  H    0.000002   0.000000   0.000000  -0.000000  -0.000000  -0.000000
    22  C    0.000000  -0.000380   0.000005  -0.000021   0.000025  -0.000002
    23  H   -0.000000  -0.000043  -0.000001  -0.000015   0.000007   0.000000
    24  C   -0.000000  -0.022753  -0.009616   0.005760  -0.006093   0.006215
    25  O    0.000000   0.001926   0.000585   0.022257  -0.006824   0.000069
    26  O   -0.000000   0.002342   0.022222   0.000592  -0.007164   0.008522
    27  C   -0.004702  -0.000000   0.000000  -0.000000   0.000000  -0.000000
    28  H   -0.000217   0.000000   0.000000  -0.000000   0.000000  -0.000000
    29  H    0.003510   0.000000  -0.000000   0.000000  -0.000000   0.000000
    30  N   -0.019120  -0.000000   0.000000  -0.000000   0.000000  -0.000000
    31  C    0.005348  -0.000000  -0.000000   0.000000  -0.000000  -0.000000
    32  H    0.000350  -0.000000  -0.000000   0.000000   0.000000  -0.000000
    33  H    0.000298   0.000000   0.000000  -0.000000  -0.000000  -0.000000
    34  C    0.408167   0.000000   0.000000  -0.000000  -0.000000  -0.000000
    35  H   -0.013059  -0.000000  -0.000000   0.000000   0.000000   0.000000
    36  H   -0.013971   0.000000   0.000000  -0.000000   0.000000  -0.000000
    37  H    0.515090   0.000000   0.000000  -0.000000  -0.000000  -0.000000
    38  C    0.000000   4.583409   0.368984   0.369318   0.399073  -0.013103
    39  H    0.000000   0.368984   0.646206  -0.022650  -0.019626  -0.011003
    40  H   -0.000000   0.369318  -0.022650   0.646093  -0.019925   0.007835
    41  C   -0.000000   0.399073  -0.019626  -0.019925   4.725487   0.366552
    42  H   -0.000000  -0.013103  -0.011003   0.007835   0.366552   0.671846
    43  H    0.000000  -0.013299   0.007816  -0.010967   0.367113  -0.029990
    44  C   -0.000000  -0.045821  -0.004045  -0.003996   0.410173  -0.021957
    45  H    0.000000  -0.005957  -0.001615   0.006690  -0.025350   0.007922
    46  H   -0.000000  -0.005917   0.006681  -0.001616  -0.025490  -0.009650
    47  C   -0.000000   0.008007   0.000039   0.000039  -0.054677  -0.004379
    48  H    0.000000  -0.000392   0.000012   0.000012   0.007232  -0.000082
    49  H    0.000000   0.000277  -0.000042   0.000020  -0.006996   0.005920
    50  H   -0.000000   0.000281   0.000020  -0.000042  -0.007033  -0.001318
              43         44         45         46         47         48
     1  C    0.000000   0.000000   0.000000  -0.000000  -0.000000   0.000000
     2  H   -0.000000  -0.000000  -0.000000  -0.000000   0.000000  -0.000000
     3  H   -0.000000  -0.000000  -0.000000   0.000000   0.000000  -0.000000
     4  H   -0.000000  -0.000000   0.000000  -0.000000   0.000000   0.000000
     5  C    0.000002  -0.000000  -0.000000  -0.000000   0.000000  -0.000000
     6  C   -0.000031   0.000000   0.000000   0.000000   0.000000  -0.000000
     7  C    0.000085  -0.000002  -0.000000  -0.000002  -0.000000   0.000000
     8  C   -0.000098  -0.000001  -0.000002  -0.000000  -0.000000   0.000000
     9  C   -0.000000   0.000000   0.000000  -0.000000  -0.000000   0.000000
    10  C    0.000000   0.000000  -0.000000   0.000000  -0.000000   0.000000
    11  H   -0.000000  -0.000000  -0.000000  -0.000000   0.000000  -0.000000
    12  C   -0.000000   0.000000  -0.000000   0.000000  -0.000000   0.000000
    13  H    0.000000  -0.000000   0.000000  -0.000000   0.000000  -0.000000
    14  C    0.006144  -0.000057  -0.000081   0.000042  -0.000011   0.000000
    15  N   -0.009110   0.004581   0.000090   0.000090  -0.000134   0.000003
    16  C   -0.000003  -0.000000   0.000000   0.000000   0.000000   0.000000
    17  H    0.000000   0.000000   0.000000  -0.000000   0.000000   0.000000
    18  C   -0.000001   0.000000   0.000000  -0.000000  -0.000000   0.000000
    19  H    0.000000  -0.000000   0.000000   0.000000   0.000000  -0.000000
    20  N   -0.000000  -0.000000   0.000000  -0.000000   0.000000  -0.000000
    21  H    0.000000   0.000000   0.000000  -0.000000  -0.000000   0.000000
    22  C   -0.000012  -0.000000   0.000000   0.000000   0.000000   0.000000
    23  H   -0.000015   0.000000  -0.000000   0.000000   0.000000   0.000000
    24  C   -0.000848  -0.000060   0.000043  -0.000083  -0.000011   0.000000
    25  O    0.008167  -0.000196   0.000027  -0.000006   0.000001  -0.000000
    26  O    0.000075  -0.000191  -0.000006   0.000028   0.000001  -0.000000
    27  C   -0.000000   0.000000   0.000000  -0.000000   0.000000   0.000000
    28  H   -0.000000  -0.000000   0.000000  -0.000000   0.000000  -0.000000
    29  H    0.000000   0.000000  -0.000000   0.000000  -0.000000   0.000000
    30  N    0.000000  -0.000000   0.000000  -0.000000   0.000000   0.000000
    31  C    0.000000   0.000000   0.000000  -0.000000  -0.000000   0.000000
    32  H   -0.000000  -0.000000   0.000000  -0.000000   0.000000   0.000000
    33  H    0.000000   0.000000   0.000000  -0.000000  -0.000000   0.000000
    34  C    0.000000   0.000000   0.000000  -0.000000  -0.000000   0.000000
    35  H   -0.000000  -0.000000  -0.000000   0.000000  -0.000000   0.000000
    36  H    0.000000  -0.000000   0.000000  -0.000000   0.000000   0.000000
    37  H    0.000000  -0.000000   0.000000  -0.000000  -0.000000   0.000000
    38  C   -0.013299  -0.045821  -0.005957  -0.005917   0.008007  -0.000392
    39  H    0.007816  -0.004045  -0.001615   0.006681   0.000039   0.000012
    40  H   -0.010967  -0.003996   0.006690  -0.001616   0.000039   0.000012
    41  C    0.367113   0.410173  -0.025350  -0.025490  -0.054677   0.007232
    42  H   -0.029990  -0.021957   0.007922  -0.009650  -0.004379  -0.000082
    43  H    0.671479  -0.022032  -0.009674   0.007938  -0.004376  -0.000082
    44  C   -0.022032   4.653540   0.384988   0.385063   0.420896  -0.016499
    45  H   -0.009674   0.384988   0.669268  -0.030271  -0.024903  -0.005453
    46  H    0.007938   0.385063  -0.030271   0.669358  -0.024936  -0.005451
    47  C   -0.004376   0.420896  -0.024903  -0.024936   4.576200   0.388695
    48  H   -0.000082  -0.016499  -0.005453  -0.005451   0.388695   0.634568
    49  H   -0.001325  -0.022227   0.007340  -0.008255   0.395528  -0.022554
    50  H    0.005942  -0.022175  -0.008256   0.007336   0.395548  -0.022543
              49         50
     1  C    0.000000  -0.000000
     2  H   -0.000000   0.000000
     3  H   -0.000000   0.000000
     4  H    0.000000  -0.000000
     5  C   -0.000000  -0.000000
     6  C    0.000000   0.000000
     7  C   -0.000000  -0.000000
     8  C   -0.000000  -0.000000
     9  C   -0.000000  -0.000000
    10  C   -0.000000  -0.000000
    11  H   -0.000000   0.000000
    12  C    0.000000   0.000000
    13  H   -0.000000  -0.000000
    14  C   -0.000000  -0.000003
    15  N    0.000001   0.000001
    16  C   -0.000000  -0.000000
    17  H    0.000000  -0.000000
    18  C    0.000000   0.000000
    19  H   -0.000000  -0.000000
    20  N    0.000000  -0.000000
    21  H    0.000000  -0.000000
    22  C   -0.000000  -0.000000
    23  H   -0.000000   0.000000
    24  C   -0.000003  -0.000000
    25  O    0.000000  -0.000007
    26  O   -0.000008   0.000000
    27  C    0.000000   0.000000
    28  H    0.000000  -0.000000
    29  H   -0.000000   0.000000
    30  N    0.000000  -0.000000
    31  C    0.000000  -0.000000
    32  H    0.000000   0.000000
    33  H    0.000000  -0.000000
    34  C    0.000000  -0.000000
    35  H   -0.000000   0.000000
    36  H    0.000000  -0.000000
    37  H    0.000000  -0.000000
    38  C    0.000277   0.000281
    39  H   -0.000042   0.000020
    40  H    0.000020  -0.000042
    41  C   -0.006996  -0.007033
    42  H    0.005920  -0.001318
    43  H   -0.001325   0.005942
    44  C   -0.022227  -0.022175
    45  H    0.007340  -0.008256
    46  H   -0.008255   0.007336
    47  C    0.395528   0.395548
    48  H   -0.022554  -0.022543
    49  H    0.637657  -0.024311
    50  H   -0.024311   0.637482
 Mulliken charges:
               1
     1  C    0.062360
     2  H    0.109164
     3  H    0.111920
     4  H    0.123206
     5  C    0.029456
     6  C    0.122885
     7  C   -0.132847
     8  C   -0.145491
     9  C    0.069343
    10  C   -0.171537
    11  H    0.018632
    12  C   -0.141398
    13  H    0.018418
    14  C    0.215267
    15  N   -0.337000
    16  C   -0.089450
    17  H    0.012389
    18  C   -0.050083
    19  H    0.028487
    20  N   -0.264143
    21  H    0.176835
    22  C   -0.080590
    23  H    0.013398
    24  C    0.206867
    25  O   -0.406236
    26  O   -0.409790
    27  C    0.078980
    28  H    0.076557
    29  H    0.083079
    30  N   -0.274023
    31  C    0.082059
    32  H    0.119692
    33  H    0.105817
    34  C    0.044666
    35  H    0.130494
    36  H    0.128374
    37  H    0.115079
    38  C    0.147883
    39  H    0.031805
    40  H    0.031853
    41  C   -0.065647
    42  H    0.026736
    43  H    0.027101
    44  C   -0.099981
    45  H    0.035202
    46  H    0.035142
    47  C   -0.071526
    48  H    0.042535
    49  H    0.038977
    50  H    0.039082
 Sum of Mulliken charges =  -0.00000
 Mulliken charges with hydrogens summed into heavy atoms:
               1
     1  C    0.406650
     5  C    0.029456
     6  C    0.122885
     7  C   -0.132847
     8  C   -0.145491
     9  C    0.069343
    10  C   -0.152904
    12  C   -0.122980
    14  C    0.215267
    15  N   -0.337000
    16  C   -0.077060
    18  C   -0.021596
    20  N   -0.087309
    22  C   -0.067191
    24  C    0.206867
    25  O   -0.406236
    26  O   -0.409790
    27  C    0.238616
    30  N   -0.274023
    31  C    0.307568
    34  C    0.418613
    38  C    0.211541
    41  C   -0.011811
    44  C   -0.029637
    47  C    0.049068
 Electronic spatial extent (au):  <R**2>=          13029.1558
 Charge=             -0.0000 electrons
 Dipole moment (field-independent basis, Debye):
    X=             37.1228    Y=             -3.2395    Z=              5.6319  Tot=             37.6871
 Quadrupole moment (field-independent basis, Debye-Ang):
   XX=             -3.6559   YY=           -161.6135   ZZ=           -141.5960
   XY=             -7.8656   XZ=             17.9115   YZ=             -5.0043
 Traceless Quadrupole moment (field-independent basis, Debye-Ang):
   XX=             98.6326   YY=            -59.3250   ZZ=            -39.3075
   XY=             -7.8656   XZ=             17.9115   YZ=             -5.0043
 Octapole moment (field-independent basis, Debye-Ang**2):
  XXX=           1113.2687  YYY=            -21.3101  ZZZ=             38.0944  XYY=            149.6860
  XXY=           -106.9348  XXZ=            149.4178  XZZ=             93.9877  YZZ=            -10.9832
  YYZ=             25.2454  XYZ=             -2.2399
 Hexadecapole moment (field-independent basis, Debye-Ang**3):
 XXXX=          -8123.8864 YYYY=          -2245.9422 ZZZZ=           -914.4539 XXXY=           -339.4645
 XXXZ=            951.3885 YYYX=            -64.6566 YYYZ=             -4.0010 ZZZX=            209.6596
 ZZZY=            -19.1702 XXYY=          -2591.0817 XXZZ=          -2076.4459 YYZZ=           -538.8328
 XXYZ=            -96.8400 YYXZ=             33.3859 ZZXY=            -73.6357
 N-N= 2.123910526272D+03 E-N=-6.783203584647D+03  KE= 1.078539864289D+03
 1\1\GINC-X1001C4S0B1N1\SP\RwB97XD TD-FC\def2SVP\C20H25N3O2\1005739\13-
 Dec-2023\0\\# wb97xd/def2SVP TD=(NStates=3, Root=2) SCRF=(SMD, solvent
 =ethanol, CorrectedLR, NonEq=Save)\\Bu-Naph-folded_wb97xd_EtOH\\0,1\C,
 0,4.794706,1.315355,0.749526\H,0,5.069424,1.592897,1.772553\H,0,3.7620
 87,1.635174,0.53248\H,0,5.460848,1.797266,0.019312\C,0,-0.105635,0.549
 565,-0.520393\C,0,-1.500514,0.265321,-0.29947\C,0,-1.931839,-1.071626,
 -0.063872\C,0,-2.448333,1.334037,-0.302425\C,0,0.829205,-0.544979,-0.5
 20966\C,0,0.288022,1.903743,-0.7166\H,0,1.338777,2.158574,-0.859327\C,
 0,0.365189,-1.856806,-0.292032\H,0,1.065632,-2.692844,-0.304738\C,0,-3
 .852129,1.063473,-0.077735\N,0,-4.221284,-0.279248,0.125132\C,0,-0.979
 927,-2.117124,-0.056866\H,0,-1.319251,-3.138966,0.120723\C,0,-0.663971
 ,2.937895,-0.716224\H,0,-0.33199,3.968858,-0.871133\N,0,2.182769,-0.25
 1709,-0.724817\H,0,2.335881,0.511472,-1.380965\C,0,-2.01051,2.670805,-
 0.516049\H,0,-2.750885,3.472215,-0.513125\C,0,-3.334104,-1.361884,0.16
 8429\O,0,-4.7331,1.949717,-0.055687\O,0,-3.770733,-2.508461,0.396805\C
 ,0,3.185423,-1.286345,-0.827508\H,0,3.151236,-1.848956,-1.781306\H,0,3
 .047374,-2.020874,-0.021104\N,0,4.856164,-0.112844,0.578065\C,0,4.6023
 29,-0.693986,-0.726786\H,0,5.334898,-1.498305,-0.881578\H,0,4.754569,0
 .082064,-1.487838\C,0,5.044037,-0.957862,1.730317\H,0,4.228779,-0.7670
 27,2.446265\H,0,5.99068,-0.677842,2.217277\H,0,5.061506,-2.01356,1.441
 408\C,0,-5.644361,-0.562992,0.345415\H,0,-5.845606,-1.563164,-0.059463
 \H,0,-6.218146,0.173726,-0.231043\C,0,-6.055218,-0.505107,1.819462\H,0
 ,-5.448708,-1.230099,2.390221\H,0,-5.818148,0.496527,2.219147\C,0,-7.5
 4218,-0.802325,2.028881\H,0,-8.143332,-0.082678,1.443199\H,0,-7.776141
 ,-1.799894,1.613651\C,0,-7.969948,-0.748114,3.49508\H,0,-9.044574,-0.9
 66404,3.61132\H,0,-7.414125,-1.482409,4.103334\H,0,-7.784456,0.248592,
 3.931262\\Version=ES64L-G16RevA.03\State=1-A\HF=-1090.8353034\RMSD=5.8
 11e-09\Dipole=14.8125732,-0.2760783,0.5986438\Quadrupole=75.3459203,-4
 4.921812,-30.4241083,0.837948,1.0001626,1.3458535\PG=C01 [X(C20H25N3O2
 )]\\@


 KNIGHT- SIRE, I'VE JUST RETURNED FROM THE FRONT
 KING-   HOW GOES THE BATTLE                    
 KNIGHT- THE SITUATION IS QUITE FLUID           
 KING-   WHAT DOES *THAT* MEAN                  
 KNIGHT- WE'RE UP THE CREEK                     
                THE WIZARD OF ID                
 Job cpu time:       0 days 11 hours  6 minutes 35.9 seconds.
 Elapsed time:       0 days  0 hours 10 minutes 38.2 seconds.
 File lengths (MBytes):  RWF=   1335 Int=      0 D2E=      0 Chk=     44 Scr=      1
 Normal termination of Gaussian 16 at Wed Dec 13 12:38:46 2023.
