 Entering Gaussian System, Link 0=g16
 Initial command:
 /home/users/sutd/1005739/g16/l1.exe "/scratch/users/sutd/1005739/g16/Gau-389007.inp" -scrdir="/scratch/users/sutd/1005739/g16/"
 Entering Link 1 = /home/users/sutd/1005739/g16/l1.exe PID=    389008.
  
 Copyright (c) 1988,1990,1992,1993,1995,1998,2003,2009,2016,
            Gaussian, Inc.  All Rights Reserved.
  
 This is part of the Gaussian(R) 16 program.  It is based on
 the Gaussian(R) 09 system (copyright 2009, Gaussian, Inc.),
 the Gaussian(R) 03 system (copyright 2003, Gaussian, Inc.),
 the Gaussian(R) 98 system (copyright 1998, Gaussian, Inc.),
 the Gaussian(R) 94 system (copyright 1995, Gaussian, Inc.),
 the Gaussian 92(TM) system (copyright 1992, Gaussian, Inc.),
 the Gaussian 90(TM) system (copyright 1990, Gaussian, Inc.),
 the Gaussian 88(TM) system (copyright 1988, Gaussian, Inc.),
 the Gaussian 86(TM) system (copyright 1986, Carnegie Mellon
 University), and the Gaussian 82(TM) system (copyright 1983,
 Carnegie Mellon University). Gaussian is a federally registered
 trademark of Gaussian, Inc.
  
 This software contains proprietary and confidential information,
 including trade secrets, belonging to Gaussian, Inc.
  
 This software is provided under written license and may be
 used, copied, transmitted, or stored only in accord with that
 written license.
  
 The following legend is applicable only to US Government
 contracts under FAR:
  
                    RESTRICTED RIGHTS LEGEND
  
 Use, reproduction and disclosure by the US Government is
 subject to restrictions as set forth in subparagraphs (a)
 and (c) of the Commercial Computer Software - Restricted
 Rights clause in FAR 52.227-19.
  
 Gaussian, Inc.
 340 Quinnipiac St., Bldg. 40, Wallingford CT 06492
  
  
 ---------------------------------------------------------------
 Warning -- This program may not be used in any manner that
 competes with the business of Gaussian, Inc. or will provide
 assistance to any competitor of Gaussian, Inc.  The licensee
 of this program is prohibited from giving any competitor of
 Gaussian, Inc. access to this program.  By using this program,
 the user acknowledges that Gaussian, Inc. is engaged in the
 business of creating and licensing software in the field of
 computational chemistry and represents and warrants to the
 licensee that it is not a competitor of Gaussian, Inc. and that
 it will not use this program in any manner prohibited above.
 ---------------------------------------------------------------
  

 Cite this work as:
 Gaussian 16, Revision A.03,
 M. J. Frisch, G. W. Trucks, H. B. Schlegel, G. E. Scuseria, 
 M. A. Robb, J. R. Cheeseman, G. Scalmani, V. Barone, 
 G. A. Petersson, H. Nakatsuji, X. Li, M. Caricato, A. V. Marenich, 
 J. Bloino, B. G. Janesko, R. Gomperts, B. Mennucci, H. P. Hratchian, 
 J. V. Ortiz, A. F. Izmaylov, J. L. Sonnenberg, D. Williams-Young, 
 F. Ding, F. Lipparini, F. Egidi, J. Goings, B. Peng, A. Petrone, 
 T. Henderson, D. Ranasinghe, V. G. Zakrzewski, J. Gao, N. Rega, 
 G. Zheng, W. Liang, M. Hada, M. Ehara, K. Toyota, R. Fukuda, 
 J. Hasegawa, M. Ishida, T. Nakajima, Y. Honda, O. Kitao, H. Nakai, 
 T. Vreven, K. Throssell, J. A. Montgomery, Jr., J. E. Peralta, 
 F. Ogliaro, M. J. Bearpark, J. J. Heyd, E. N. Brothers, K. N. Kudin, 
 V. N. Staroverov, T. A. Keith, R. Kobayashi, J. Normand, 
 K. Raghavachari, A. P. Rendell, J. C. Burant, S. S. Iyengar, 
 J. Tomasi, M. Cossi, J. M. Millam, M. Klene, C. Adamo, R. Cammi, 
 J. W. Ochterski, R. L. Martin, K. Morokuma, O. Farkas, 
 J. B. Foresman, and D. J. Fox, Gaussian, Inc., Wallingford CT, 2016.
 
 ******************************************
 Gaussian 16:  ES64L-G16RevA.03 25-Dec-2016
                17-Jan-2024 
 ******************************************
 %nprocshared=64
 Will use up to   64 processors via shared memory.
 %mem=220GB
 %oldchk=06Bu-Naph-folded_wb97xd_EtOH.chk
 %chk=07Bu-Naph-folded_wb97xd_EtOH.chk
 Copying data from "06Bu-Naph-folded_wb97xd_EtOH.chk" to current chk file "07Bu-Naph-folded_wb97xd_EtOH.chk"
 IOpt=  2 FromEx=T IUOpen= 4 IOptOp= 5 NList=   0 IFRang= 0 IUIn= 4 IUOut= 2.
 ----------------------------------------------------------------------
 # wb97xd/def2SVP geom=check guess=read SCRF=(SMD, solvent=ethanol, Non
 Eq=Read)
 ----------------------------------------------------------------------
 1/29=2,38=1,172=1/1;
 2/12=2,40=1/2;
 3/5=43,7=101,11=2,14=-4,25=1,30=1,70=6032201,72=4,74=-58,116=-2/1,2,3;
 4/5=1/1;
 5/5=2,38=6,53=4/2;
 6/7=2,8=2,9=2,10=2,28=1/1;
 99/5=1,9=1/99;
 ----------------------------
 07Bu-Naph-folded_wb97xd_EtOH
 ----------------------------
 Structure from the checkpoint file:  "07Bu-Naph-folded_wb97xd_EtOH.chk"
 Charge =  0 Multiplicity = 1
 Z-Matrix found in chk file.
 C,0,4.794706,1.315355,0.749526
 H,0,5.069424,1.592897,1.772553
 H,0,3.762087,1.635174,0.53248
 H,0,5.460848,1.797266,0.019312
 C,0,-0.105635,0.549565,-0.520393
 C,0,-1.500514,0.265321,-0.29947
 C,0,-1.931839,-1.071626,-0.063872
 C,0,-2.448333,1.334037,-0.302425
 C,0,0.829205,-0.544979,-0.520966
 C,0,0.288022,1.903743,-0.7166
 H,0,1.338777,2.158574,-0.859327
 C,0,0.365189,-1.856806,-0.292032
 H,0,1.065632,-2.692844,-0.304738
 C,0,-3.852129,1.063473,-0.077735
 N,0,-4.221284,-0.279248,0.125132
 C,0,-0.979927,-2.117124,-0.056866
 H,0,-1.319251,-3.138966,0.120723
 C,0,-0.663971,2.937895,-0.716224
 H,0,-0.33199,3.968858,-0.871133
 N,0,2.182769,-0.251709,-0.724817
 H,0,2.335881,0.511472,-1.380965
 C,0,-2.01051,2.670805,-0.516049
 H,0,-2.750885,3.472215,-0.513125
 C,0,-3.334104,-1.361884,0.168429
 O,0,-4.7331,1.949717,-0.055687
 O,0,-3.770733,-2.508461,0.396805
 C,0,3.185423,-1.286345,-0.827508
 H,0,3.151236,-1.848956,-1.781306
 H,0,3.047374,-2.020874,-0.021104
 N,0,4.856164,-0.112844,0.578065
 C,0,4.602329,-0.693986,-0.726786
 H,0,5.334898,-1.498305,-0.881578
 H,0,4.754569,0.082064,-1.487838
 C,0,5.044037,-0.957862,1.730317
 H,0,4.228779,-0.767027,2.446265
 H,0,5.99068,-0.677842,2.217277
 H,0,5.061506,-2.01356,1.441408
 C,0,-5.644361,-0.562992,0.345415
 H,0,-5.845606,-1.563164,-0.059463
 H,0,-6.218146,0.173726,-0.231043
 C,0,-6.055218,-0.505107,1.819462
 H,0,-5.448708,-1.230099,2.390221
 H,0,-5.818148,0.496527,2.219147
 C,0,-7.54218,-0.802325,2.028881
 H,0,-8.143332,-0.082678,1.443199
 H,0,-7.776141,-1.799894,1.613651
 C,0,-7.969948,-0.748114,3.49508
 H,0,-9.044574,-0.966404,3.61132
 H,0,-7.414125,-1.482409,4.103334
 H,0,-7.784456,0.248592,3.931262
 Recover connectivity data from disk.
                          Input orientation:                          
 ---------------------------------------------------------------------
 Center     Atomic      Atomic             Coordinates (Angstroms)
 Number     Number       Type             X           Y           Z
 ---------------------------------------------------------------------
      1          6           0        4.794706    1.315355    0.749526
      2          1           0        5.069424    1.592897    1.772553
      3          1           0        3.762087    1.635174    0.532480
      4          1           0        5.460848    1.797266    0.019312
      5          6           0       -0.105635    0.549565   -0.520393
      6          6           0       -1.500514    0.265321   -0.299470
      7          6           0       -1.931839   -1.071626   -0.063872
      8          6           0       -2.448333    1.334037   -0.302425
      9          6           0        0.829205   -0.544979   -0.520966
     10          6           0        0.288022    1.903743   -0.716600
     11          1           0        1.338777    2.158574   -0.859327
     12          6           0        0.365189   -1.856806   -0.292032
     13          1           0        1.065632   -2.692844   -0.304738
     14          6           0       -3.852129    1.063473   -0.077735
     15          7           0       -4.221284   -0.279248    0.125132
     16          6           0       -0.979927   -2.117124   -0.056866
     17          1           0       -1.319251   -3.138966    0.120723
     18          6           0       -0.663971    2.937895   -0.716224
     19          1           0       -0.331990    3.968858   -0.871133
     20          7           0        2.182769   -0.251709   -0.724817
     21          1           0        2.335881    0.511472   -1.380965
     22          6           0       -2.010510    2.670805   -0.516049
     23          1           0       -2.750885    3.472215   -0.513125
     24          6           0       -3.334104   -1.361884    0.168429
     25          8           0       -4.733100    1.949717   -0.055687
     26          8           0       -3.770733   -2.508461    0.396805
     27          6           0        3.185423   -1.286345   -0.827508
     28          1           0        3.151236   -1.848956   -1.781306
     29          1           0        3.047374   -2.020874   -0.021104
     30          7           0        4.856164   -0.112844    0.578065
     31          6           0        4.602329   -0.693986   -0.726786
     32          1           0        5.334898   -1.498305   -0.881578
     33          1           0        4.754569    0.082064   -1.487838
     34          6           0        5.044037   -0.957862    1.730317
     35          1           0        4.228779   -0.767027    2.446265
     36          1           0        5.990680   -0.677842    2.217277
     37          1           0        5.061506   -2.013560    1.441408
     38          6           0       -5.644361   -0.562992    0.345415
     39          1           0       -5.845606   -1.563164   -0.059463
     40          1           0       -6.218146    0.173726   -0.231043
     41          6           0       -6.055218   -0.505107    1.819462
     42          1           0       -5.448708   -1.230099    2.390221
     43          1           0       -5.818148    0.496527    2.219147
     44          6           0       -7.542180   -0.802325    2.028881
     45          1           0       -8.143332   -0.082678    1.443199
     46          1           0       -7.776141   -1.799894    1.613651
     47          6           0       -7.969948   -0.748114    3.495080
     48          1           0       -9.044574   -0.966404    3.611320
     49          1           0       -7.414125   -1.482409    4.103334
     50          1           0       -7.784456    0.248592    3.931262
 ---------------------------------------------------------------------
                    Distance matrix (angstroms):
                    1          2          3          4          5
     1  C    0.000000
     2  H    1.095027   0.000000
     3  H    1.102586   1.802415   0.000000
     4  H    1.099634   1.807992   1.781966   0.000000
     5  C    5.119812   5.755639   4.152874   5.730076   0.000000
     6  C    6.467825   7.015684   5.501237   7.135057   1.440586
     7  C    7.183711   7.712965   6.332708   7.930276   2.484289
     8  C    7.319055   7.803154   6.273521   7.929265   2.480149
     9  C    4.560723   5.273538   3.803237   5.218250   1.439428
    10  C    4.775555   5.399473   3.701548   5.225996   1.423819
    11  H    3.904212   4.600490   2.843151   4.230132   2.188633
    12  C    5.546897   6.188117   4.940917   6.278130   2.462609
    13  H    5.575224   6.221982   5.167547   6.291583   3.454213
    14  C    8.689969   9.126772   7.659993   9.342345   3.807396
    15  N    9.177184   9.619573   8.219803   9.902868   4.247611
    16  C    6.765986   7.328416   6.075670   7.537363   2.844376
    17  H    7.590576   8.119990   6.984408   8.387277   3.935626
    18  C    5.880324   6.393344   4.779784   6.273393   2.460530
    19  H    5.995884   6.466030   4.917080   6.250254   3.444680
    20  N    3.384020   4.239364   2.763217   3.936728   2.433233
    21  H    3.351274   4.311196   2.637810   3.657795   2.589022
    22  C    7.053360   7.518314   5.957753   7.541278   2.851005
    23  H    7.948728   8.361423   6.847395   8.397708   3.941990
    24  C    8.578044   9.051145   7.711732   9.346317   3.814594
    25  O    9.582790   9.977939   8.521331  10.195364   4.856934
    26  O    9.386838   9.841859   8.598343  10.193325   4.860629
    27  C    3.441754   4.312750   3.273741   3.924706   3.780998
    28  H    4.372524   5.306196   4.226808   4.676694   4.236746
    29  H    3.844147   4.512785   3.766159   4.517154   4.098526
    30  N    1.439767   2.093283   2.062680   2.079992   5.124924
    31  C    2.500791   3.419752   2.777903   2.738623   4.873802
    32  H    3.296815   4.082942   3.780474   3.418809   5.824399
    33  H    2.555076   3.607201   2.734750   2.390031   4.977559
    34  C    2.488299   2.551235   3.130822   3.269862   5.818690
    35  H    2.745089   2.594188   3.106597   3.739478   5.414944
    36  H    2.749087   2.490532   3.627011   3.352302   6.794588
    37  H    3.410507   3.621637   3.978429   4.087080   6.092423
    38  C   10.614406  11.021332   9.661687  11.357941   5.715321
    39  H   11.052447  11.508905  10.143349  11.795533   6.133787
    40  H   11.115203  11.551523  10.115525  11.793959   6.130886
    41  C   11.053492  11.320843  10.129985  11.881129   6.479567
    42  H   10.681701  10.907883   9.823428  11.567392   6.339346
    43  H   10.745368  10.951744   9.793991  11.564902   6.335669
    44  C   12.582531  12.839601  11.660492  13.411748   7.976754
    45  H   13.031827  13.322648  12.063143  13.807076   8.298192
    46  H   12.979895  13.287017  12.087156  13.809394   8.301251
    47  C   13.218637  13.359366  12.332790  14.104829   8.924988
    48  H   14.315096  14.461536  13.426021  15.196962   9.963626
    49  H   12.966536  13.066332  12.139936  13.899656   8.883794
    50  H   13.019092  13.103031  12.115981  13.897475   8.880997
                    6          7          8          9         10
     6  C    0.000000
     7  C    1.424421   0.000000
     8  C    1.428469   2.472021   0.000000
     9  C    2.476537   2.847746   3.784272   0.000000
    10  C    2.461155   3.769172   2.825552   2.515431   0.000000
    11  H    3.458239   4.665176   3.915636   2.771886   1.090594
    12  C    2.825655   2.438217   4.254115   1.410181   3.785227
    13  H    3.916104   3.416313   5.344504   2.171630   4.680056
    14  C    2.493252   2.871646   1.447181   4.969754   4.272593
    15  N    2.807033   2.430050   2.434923   5.098578   5.080138
    16  C    2.450696   1.413949   3.758594   2.441309   4.267355
    17  H    3.434907   2.164078   4.632671   3.428760   5.358484
    18  C    2.831279   4.255504   2.434654   3.794484   1.405618
    19  H    3.925358   5.349548   3.427042   4.673940   2.161711
    20  N    3.743636   4.247247   4.913259   1.399892   2.869862
    21  H    3.993513   4.738604   4.972782   2.031197   2.563889
    22  C    2.468472   3.770470   1.422769   4.290137   2.431430
    23  H    3.448658   4.638874   2.169732   5.380981   3.425852
    24  C    2.495752   1.450710   2.876505   4.298342   4.956550
    25  O    3.653250   4.120151   2.379097   6.113856   5.064641
    26  O    3.651378   2.378707   4.123403   5.084977   6.097598
    27  C    4.964322   5.178380   6.235489   2.489047   4.310904
    28  H    5.320224   5.421390   6.608609   2.946293   4.838837
    29  H    5.097790   5.069069   6.444949   2.710794   4.847717
    30  N    6.428097   6.885371   7.498293   4.196547   5.158556
    31  C    6.192541   6.578557   7.348795   3.781670   5.036025
    32  H    7.083226   7.325037   8.302787   4.619539   6.088687
    33  H    6.369605   6.933018   7.406378   4.091028   4.885014
    34  C    6.960414   7.203812   8.094470   4.796202   6.065960
    35  H    6.436583   6.659338   7.520212   4.517839   5.715443
    36  H    7.958741   8.253788   9.034019   5.844352   6.913214
    37  H    7.161289   7.215260   8.405060   4.890809   6.541285
    38  C    4.274745   3.769489   3.772666   6.531309   6.511976
    39  H    4.720253   3.944515   4.471495   6.767776   7.076204
    40  H    4.719017   4.466685   3.944985   7.089834   6.749737
    41  C    5.082200   4.568385   4.571047   7.271484   7.243677
    42  H    5.005892   4.291393   4.777801   6.953890   7.237636
    43  H    5.003884   4.772282   4.291317   7.265002   6.919840
    44  C    6.562226   5.994002   5.995524   8.754886   8.727688
    45  H    6.876411   6.467761   6.122687   9.196635   8.927392
    46  H    6.878128   6.123751   6.471353   8.954517   9.174842
    47  C    7.568305   7.016378   7.017452   9.674450   9.641818
    48  H    8.586284   8.006816   8.007486  10.711905  10.680168
    49  H    7.576941   6.898537   7.211253   9.498180   9.696435
    50  H    7.575441   7.208134   6.897572   9.728682   9.460816
                   11         12         13         14         15
    11  H    0.000000
    12  C    4.170488   0.000000
    13  H    4.890648   1.090753   0.000000
    14  C    5.362428   5.134172   6.192400   0.000000
    15  N    6.150318   4.868105   5.827668   1.407242   0.000000
    16  C    4.929698   1.390110   2.139441   4.285578   3.730591
    17  H    6.007457   2.156766   2.463272   4.910738   4.074285
    18  C    2.153792   4.922222   5.904750   3.753062   4.869534
    19  H    2.463479   5.895742   6.830258   4.632723   5.845131
    20  N    2.557319   2.463176   2.717278   6.210347   6.460268
    21  H    1.994810   3.267743   3.611016   6.347801   6.774214
    22  C    3.405575   5.117948   6.186763   2.483384   3.741851
    23  H    4.309390   6.177157   7.253770   2.684090   4.079573
    24  C    5.940179   3.760551   4.620933   2.492249   1.400380
    25  O    6.128389   6.366948   7.432408   1.249810   2.294109
    26  O    7.033219   4.243230   4.890459   3.604237   2.290457
    27  C    3.908783   2.926752   2.597122   7.457274   7.535322
    28  H    4.493924   3.159123   2.691123   7.773771   7.775123
    29  H    4.592353   2.700821   2.111704   7.557747   7.475830
    30  N    4.426900   4.895644   4.669462   8.811819   9.090264
    31  C    4.336524   4.415260   4.084334   8.659549   8.874340
    32  H    5.416848   5.017379   4.470604   9.571329   9.686082
    33  H    4.046549   4.945283   4.765301   8.776492   9.126782
    34  C    5.490663   5.175868   4.793675   9.300356   9.427794
    35  H    5.276191   4.859343   4.613273   8.661546   8.776625
    36  H    6.257072   6.271582   5.888709  10.255737  10.431690
    37  H    6.046387   5.008471   4.413328   9.551378   9.534706
    38  C    7.590951   6.180209   7.069864   2.456937   1.467714
    39  H    8.130589   6.222081   7.007250   3.297500   2.078687
    40  H    7.838460   6.889636   7.827904   2.532428   2.078342
    41  C    8.303148   6.892541   7.746284   3.303544   2.507006
    42  H    8.253037   6.433400   7.199934   3.728316   2.746146
    43  H    7.966240   7.076571   7.995531   3.076089   2.745305
    44  C    9.796942   8.308132   9.116703   4.640637   3.863447
    45  H   10.011754   8.863040   9.730019   4.694819   4.142270
    46  H   10.240450   8.361586   9.091453   5.143688   4.143074
    47  C   10.679984   9.222035   9.993113   5.744849   5.062496
    48  H   11.728860  10.226075  10.978724   6.685134   5.990811
    49  H   10.700376   8.942994   9.633407   6.053980   5.240985
    50  H   10.480036   9.417305  10.243037   5.674441   5.240366
                   16         17         18         19         20
    16  C    0.000000
    17  H    1.091256   0.000000
    18  C    5.107622   6.169126   0.000000
    19  H    6.174304   7.244282   1.094117   0.000000
    20  N    3.732101   4.616853   4.275228   4.915141   0.000000
    21  H    4.433660   5.379661   3.915166   4.396701   1.018047
    22  C    4.919066   5.885300   1.387290   2.151385   5.115492
    23  H    5.880916   6.794045   2.163783   2.495171   6.184930
    24  C    2.482598   2.686993   5.138124   6.205658   5.697918
    25  O    5.534032   6.130268   4.239176   4.910362   7.288570
    26  O    2.854393   2.546276   6.368171   7.442330   6.464917
    27  C    4.316738   4.962201   5.716154   6.323864   1.444414
    28  H    4.484653   5.026638   6.213224   6.841655   2.145995
    29  H    4.028610   4.509729   6.232709   6.929613   2.091100
    30  N    6.203244   6.892193   6.438485   6.758506   2.977218
    31  C    5.799629   6.462299   6.397233   6.790468   2.459651
    32  H    6.398445   6.926332   7.462817   7.874236   3.393301
    33  H    6.306231   7.060722   6.173470   6.431219   2.703287
    34  C    6.389527   6.916606   7.331019   7.742208   3.835778
    35  H    5.934564   6.466442   6.904114   7.364397   3.808867
    36  H    7.472123   7.992982   8.121783   8.432452   4.830910
    37  H    6.225308   6.612474   7.871046   8.380153   4.010458
    38  C    4.932961   5.039117   6.179609   7.087943   7.906090
    39  H    4.897112   4.796197   6.894941   7.852518   8.161949
    40  H    5.719901   5.924259   6.222933   7.032750   8.426160
    41  C    5.646041   5.679112   6.881098   7.746677   8.625659
    42  H    5.171562   5.083976   7.065117   7.990393   8.300611
    43  H    5.951453   6.153070   6.414220   7.190608   8.558122
    44  C    7.010150   6.915620   8.296662   9.119271  10.122285
    45  H    7.596284   7.593281   8.350318   9.098799  10.552593
    46  H    7.005697   6.761167   8.857648   9.740022  10.346265
    47  C    7.959328   7.831617   9.203208   9.982587  11.005981
    48  H    8.934107   8.751280  10.208119  10.970794  12.056787
    49  H    7.688240   7.466784   9.398500  10.228307  10.813234
    50  H    8.234282   8.233750   8.918115   9.614709  11.012490
                   21         22         23         24         25
    21  H    0.000000
    22  C    4.929697   0.000000
    23  H    5.949314   1.091064   0.000000
    24  C    6.169183   4.299185   4.916622   0.000000
    25  O    7.334535   2.853839   2.540950   3.601960   0.000000
    26  O    7.040682   5.545853   6.134863   1.247974   4.583258
    27  C    2.064021   6.538636   7.614623   6.595592   8.588994
    28  H    2.529169   6.976585   8.047246   6.789576   8.920226
    29  H    2.961118   6.916575   8.002245   6.418213   8.735134
    30  N    3.252598   7.489793   8.480008   8.295082   9.829028
    31  C    2.649125   7.422659   8.454149   8.014641   9.725727
    32  H    3.644543   8.454000   9.498511   8.733426  10.674059
    33  H    2.458834   7.308368   8.293071   8.381816   9.775226
    34  C    4.378713   8.245000   9.242263   8.532056  10.355493
    35  H    4.457052   7.715097   8.685901   7.920833   9.693077
    36  H    5.264919   9.094149  10.054503   9.571692  11.272528
    37  H    4.665898   8.705649   9.744095   8.516538  10.671606
    38  C    8.235237   4.940085   5.039066   2.450886   2.702774
    39  H    8.543255   5.730875   5.927744   2.529840   3.684836
    40  H    8.637579   4.901105   4.793902   3.291713   2.321692
    41  C    9.038070   5.648070   5.672625   3.296125   3.360110
    42  H    8.823533   5.956900   6.149750   3.070061   4.075020
    43  H    8.913429   5.167871   5.072291   3.718818   2.909289
    44  C   10.532293   7.009898   6.905794   4.634899   4.450853
    45  H   10.869352   7.002273   6.748552   5.137128   4.243462
    46  H   10.796440   7.600347   7.587589   4.691717   5.109439
    47  C   11.470505   7.955694   7.817640   5.738847   5.510302
    48  H   12.514862   8.929867   8.736298   6.679773   6.367064
    49  H   11.362910   8.233283   8.222275   5.669619   6.022030
    50  H   11.432851   7.680113   7.448568   6.046336   5.300977
                   26         27         28         29         30
    26  O    0.000000
    27  C    7.168027   0.000000
    28  H    7.286479   1.107895   0.000000
    29  H    6.848282   1.099490   1.771625   0.000000
    30  N    8.955177   2.478733   3.389321   2.696535   0.000000
    31  C    8.640772   1.539044   2.133457   2.162523   1.450791
    32  H    9.250254   2.160577   2.387645   2.499252   2.068634
    33  H    9.107331   2.184216   2.526982   3.080288   2.077562
    34  C    9.048911   3.178807   4.087571   2.860792   1.441193
    35  H    8.439495   3.475036   4.494889   3.009279   2.076473
    36  H   10.097052   4.184550   5.042085   3.934099   2.072044
    37  H    8.907557   3.032575   3.749948   2.489121   2.097677
    38  C    2.701476   8.936670   9.139977   8.820772  10.512744
    39  H    2.325267   9.067856   9.164583   8.904834  10.818399
    40  H    3.684854   9.534919   9.709783   9.524190  11.107525
    41  C    3.355034   9.643974   9.976485   9.409698  10.988776
    42  H    2.902330   9.214400   9.578291   8.866974  10.522479
    43  H    4.067283   9.670834  10.097265   9.484383  10.816904
    44  C    4.449538  11.111917  11.400092  10.854766  12.501967
    45  H    5.108717  11.616609  11.877897  11.451318  13.028287
    46  H    4.245712  11.241836  11.442714  10.948504  12.786466
    47  C    5.507407  11.975674  12.358513  11.634640  13.168967
    48  H    6.365881  13.014545  13.364022  12.669713  14.253411
    49  H    5.297683  11.691966  12.099182  11.258059  12.839907
    50  H    6.016951  12.055711  12.514891  11.751605  13.082807
                   31         32         33         34         35
    31  C    0.000000
    32  H    1.098884   0.000000
    33  H    1.097557   1.789385   0.000000
    34  C    2.510397   2.683035   3.394372   0.000000
    35  H    3.195798   3.582291   4.058889   1.101656   0.000000
    36  H    3.255040   3.272020   3.979109   1.100761   1.778956
    37  H    2.579377   2.395098   3.614738   1.094656   1.804721
    38  C   10.303467  11.087130  10.578972  10.784977  10.096242
    39  H   10.505243  11.210876  10.821772  11.052331  10.411808
    40  H   10.866525  11.691523  11.044836  11.487567  10.825490
    41  C   10.959122  11.748055  11.319651  11.108843  10.306410
    42  H   10.536911  11.272212  10.993997  10.517000   9.688722
    43  H   10.894135  11.746671  11.211417  10.970017  10.128618
    44  C   12.453696  13.220223  12.820277  12.590718  11.778410
    45  H   12.943508  13.750319  13.227773  13.219496  12.431557
    46  H   12.646233  13.349774  13.045294  12.848330  12.078003
    47  C   13.262324  14.026291  13.690581  13.134770  12.243746
    48  H   14.322407  15.074424  14.748459  14.213627  13.325877
    49  H   12.974854  13.688944  13.482800  12.692996  11.781972
    50  H   13.267189  14.083058  13.660949  13.071722  12.147202
                   36         37         38         39         40
    36  H    0.000000
    37  H    1.802631   0.000000
    38  C   11.785213  10.859141   0.000000
    39  H   12.085736  11.019100   1.097620   0.000000
    40  H   12.480980  11.610851   1.097400   1.784660   0.000000
    41  C   12.053703  11.224968   1.531329   2.166514   2.166086
    42  H   11.454017  10.581997   2.159755   2.503879   3.071447
    43  H   11.867079  11.192510   2.159549   3.071668   2.503524
    44  C   13.534744  12.675374   2.548147   2.796144   2.795174
    45  H   14.167700  13.345263   2.771405   3.119195   2.564210
    46  H   13.825655  12.840580   2.771793   2.565603   3.118561
    47  C   14.019160  13.252838   3.919568   4.220416   4.219312
    48  H   15.102499  14.310365   4.731842   4.905524   4.904319
    49  H   13.560728  12.767511   4.254333   4.449231   4.791657
    50  H   13.912239  13.279136   4.254054   4.792440   4.447889
                   41         42         43         44         45
    41  C    0.000000
    42  H    1.104189   0.000000
    43  H    1.104183   1.773976   0.000000
    44  C    1.530768   2.167068   2.166911   0.000000
    45  H    2.163386   3.078055   2.518741   1.105576   0.000000
    46  H    2.163425   2.518863   3.077972   1.105576   1.764288
    47  C    2.555961   2.794579   2.794169   1.528288   2.164043
    48  H    3.515651   3.806688   3.806329   2.188201   2.508776
    49  H    2.831575   2.619405   3.164410   2.186840   3.093107
    50  H    2.831612   3.164973   2.619003   2.186819   2.535545
                   46         47         48         49         50
    46  H    0.000000
    47  C    2.164157   0.000000
    48  H    2.508846   1.102716   0.000000
    49  H    2.535818   1.103676   1.779523   0.000000
    50  H    3.093167   1.103669   1.779459   1.778516   0.000000
 Stoichiometry    C20H25N3O2
 Framework group  C1[X(C20H25N3O2)]
 Deg. of freedom   144
 Full point group                 C1      NOp   1
 Largest Abelian subgroup         C1      NOp   1
 Largest concise Abelian subgroup C1      NOp   1
                         Standard orientation:                         
 ---------------------------------------------------------------------
 Center     Atomic      Atomic             Coordinates (Angstroms)
 Number     Number       Type             X           Y           Z
 ---------------------------------------------------------------------
      1          6           0        5.892958    0.871254    1.566561
      2          1           0        6.039447    0.821349    2.650597
      3          1           0        4.903083    1.298319    1.335350
      4          1           0        6.656453    1.507343    1.095750
      5          6           0        1.182207    0.788345   -0.437042
      6          6           0       -0.234708    0.531082   -0.475190
      7          6           0       -0.718398   -0.789723   -0.699896
      8          6           0       -1.153527    1.605593   -0.270927
      9          6           0        2.088111   -0.309055   -0.653844
     10          6           0        1.623826    2.116199   -0.174286
     11          1           0        2.688926    2.341923   -0.110992
     12          6           0        1.573346   -1.602087   -0.881215
     13          1           0        2.253376   -2.435949   -1.060029
     14          6           0       -2.579504    1.360789   -0.302480
     15          7           0       -2.997461    0.040541   -0.552655
     16          6           0        0.204407   -1.843486   -0.892938
     17          1           0       -0.174540   -2.851720   -1.068162
     18          6           0        0.699774    3.156976    0.022367
     19          1           0        1.068706    4.167695    0.220937
     20          7           0        3.462044   -0.045840   -0.601662
     21          1           0        3.712766    0.866018   -0.978587
     22          6           0       -0.666217    2.919431   -0.024693
     23          1           0       -1.385254    3.725354    0.129889
     24          6           0       -2.144213   -1.055639   -0.729914
     25          8           0       -3.438766    2.250029   -0.120975
     26          8           0       -2.628564   -2.192311   -0.905473
     27          6           0        4.449446   -1.060001   -0.889493
     28          1           0        4.527076   -1.316042   -1.964596
     29          1           0        4.194934   -1.989323   -0.359907
     30          7           0        5.948354   -0.445358    0.986569
     31          6           0        5.852876   -0.603977   -0.452361
     32          1           0        6.583602   -1.367799   -0.752629
     33          1           0        6.116441    0.350909   -0.924967
     34          6           0        5.970503   -1.599736    1.849099
     35          1           0        5.073957   -1.581054    2.489022
     36          1           0        6.852065   -1.528338    2.504405
     37          1           0        6.004535   -2.523923    1.263445
     38          6           0       -4.442244   -0.214466   -0.594555
     39          1           0       -4.609128   -1.039377   -1.299142
     40          1           0       -4.923009    0.689830   -0.988762
     41          6           0       -5.037639   -0.567333    0.771445
     42          1           0       -4.523468   -1.460615    1.167562
     43          1           0       -4.834539    0.258471    1.475732
     44          6           0       -6.544633   -0.828419    0.707780
     45          1           0       -7.051680    0.063825    0.296558
     46          1           0       -6.742578   -1.645969   -0.009665
     47          6           0       -7.155861   -1.181542    2.063275
     48          1           0       -8.240527   -1.363288    1.982959
     49          1           0       -6.696938   -2.091815    2.486234
     50          1           0       -7.008680   -0.368211    2.794655
 ---------------------------------------------------------------------
 Rotational constants (GHZ):           0.4780446           0.0910137           0.0837496
 Standard basis: def2SVP (5D, 7F)
 There are   500 symmetry adapted cartesian basis functions of A   symmetry.
 There are   475 symmetry adapted basis functions of A   symmetry.
   475 basis functions,   800 primitive gaussians,   500 cartesian basis functions
    91 alpha electrons       91 beta electrons
       nuclear repulsion energy      2123.9513914036 Hartrees.
 NAtoms=   50 NActive=   50 NUniq=   50 SFac= 1.00D+00 NAtFMM=   60 NAOKFM=F Big=F
 Integral buffers will be    131072 words long.
 Raffenetti 2 integral format.
 Two-electron integral symmetry is turned on.
 Nuclear repulsion after empirical dispersion term =     2123.9127994994 Hartrees.
 ------------------------------------------------------------------------------
 Polarizable Continuum Model (PCM)
 =================================
 Model                : PCM.
 Atomic radii         : SMD-Coulomb.
 Polarization charges : Total charges.
 Charge compensation  : None.
 Solution method      : On-the-fly selection.
 Cavity type          : VdW (van der Waals Surface) (Alpha=1.000).
 Cavity algorithm     : GePol (No added spheres)
                        Default sphere list used, NSphG=   50.
                        Lebedev-Laikov grids with approx.  5.0 points / Ang**2.
                        Smoothing algorithm: York/Karplus (Gamma=1.0000).
                        Polarization charges: spherical gaussians, with
                                              point-specific exponents (IZeta= 3).
                        Self-potential: point-specific (ISelfS= 7).
                        Self-field    : sphere-specific E.n sum rule (ISelfD= 2).
 Solvent              : Ethanol, Eps=  24.852000 Eps(inf)=   1.852593
 ------------------------------------------------------------------------------
 ------------------------------------------------------------------------------
 Atomic radii for non-electrostatic terms: SMD-CDS.
 ------------------------------------------------------------------------------
 Nuclear repulsion after PCM non-electrostatic terms =     2123.9105262723 Hartrees.
 One-electron integrals computed using PRISM.
   1 Symmetry operations used in ECPInt.
 ECPInt:  NShTT=   25425 NPrTT=   90925 LenC2=   20445 LenP2D=   49359.
 LDataN:  DoStor=T MaxTD1= 4 Len=   56
 NBasis=   475 RedAO= T EigKep=  2.21D-04  NBF=   475
 NBsUse=   475 1.00D-06 EigRej= -1.00D+00 NBFU=   475
 Initial guess from the checkpoint file:  "07Bu-Naph-folded_wb97xd_EtOH.chk"
 B after Tr=    -0.000000    0.000000   -0.000000
         Rot=    1.000000   -0.000000    0.000000    0.000000 Ang=   0.00 deg.
 Requested convergence on RMS density matrix=1.00D-08 within 128 cycles.
 Requested convergence on MAX density matrix=1.00D-06.
 Requested convergence on             energy=1.00D-06.
 No special actions if energy rises.
 Inv3:  Mode=1 IEnd=    37594800.
 Iteration    1 A*A^-1 deviation from unit magnitude is 3.33D-15 for   2286.
 Iteration    1 A*A^-1 deviation from orthogonality  is 4.22D-15 for   1941   1065.
 Iteration    1 A^-1*A deviation from unit magnitude is 3.33D-15 for   2469.
 Iteration    1 A^-1*A deviation from orthogonality  is 2.72D-15 for   2376   2343.
 NEqPCM:  Using non-equilibrium solvation (IEInf=1, Eps=  24.8520, EpsInf=   1.8526)
 Inv3:  Mode=1 IEnd=    37594800.
 Iteration    1 A*A^-1 deviation from unit magnitude is 3.33D-15 for   1941.
 Iteration    1 A*A^-1 deviation from orthogonality  is 2.89D-15 for   2227    332.
 Iteration    1 A^-1*A deviation from unit magnitude is 3.11D-15 for    359.
 Iteration    1 A^-1*A deviation from orthogonality  is 3.03D-15 for   2030   1941.
 Error on total polarization charges =  0.03435
 SCF Done:  E(RwB97XD) =  -1090.80451363     A.U. after   15 cycles
            NFock= 15  Conv=0.69D-08     -V/T= 2.0114
 SMD-CDS (non-electrostatic) energy       (kcal/mol) =      -1.43
 (included in total energy above)

 **********************************************************************

            Population analysis using the SCF density.

 **********************************************************************

 Orbital symmetries:
       Occupied  (A) (A) (A) (A) (A) (A) (A) (A) (A) (A) (A) (A)
                 (A) (A) (A) (A) (A) (A) (A) (A) (A) (A) (A) (A)
                 (A) (A) (A) (A) (A) (A) (A) (A) (A) (A) (A) (A)
                 (A) (A) (A) (A) (A) (A) (A) (A) (A) (A) (A) (A)
                 (A) (A) (A) (A) (A) (A) (A) (A) (A) (A) (A) (A)
                 (A) (A) (A) (A) (A) (A) (A) (A) (A) (A) (A) (A)
                 (A) (A) (A) (A) (A) (A) (A) (A) (A) (A) (A) (A)
                 (A) (A) (A) (A) (A) (A) (A)
       Virtual   (A) (A) (A) (A) (A) (A) (A) (A) (A) (A) (A) (A)
                 (A) (A) (A) (A) (A) (A) (A) (A) (A) (A) (A) (A)
                 (A) (A) (A) (A) (A) (A) (A) (A) (A) (A) (A) (A)
                 (A) (A) (A) (A) (A) (A) (A) (A) (A) (A) (A) (A)
                 (A) (A) (A) (A) (A) (A) (A) (A) (A) (A) (A) (A)
                 (A) (A) (A) (A) (A) (A) (A) (A) (A) (A) (A) (A)
                 (A) (A) (A) (A) (A) (A) (A) (A) (A) (A) (A) (A)
                 (A) (A) (A) (A) (A) (A) (A) (A) (A) (A) (A) (A)
                 (A) (A) (A) (A) (A) (A) (A) (A) (A) (A) (A) (A)
                 (A) (A) (A) (A) (A) (A) (A) (A) (A) (A) (A) (A)
                 (A) (A) (A) (A) (A) (A) (A) (A) (A) (A) (A) (A)
                 (A) (A) (A) (A) (A) (A) (A) (A) (A) (A) (A) (A)
                 (A) (A) (A) (A) (A) (A) (A) (A) (A) (A) (A) (A)
                 (A) (A) (A) (A) (A) (A) (A) (A) (A) (A) (A) (A)
                 (A) (A) (A) (A) (A) (A) (A) (A) (A) (A) (A) (A)
                 (A) (A) (A) (A) (A) (A) (A) (A) (A) (A) (A) (A)
                 (A) (A) (A) (A) (A) (A) (A) (A) (A) (A) (A) (A)
                 (A) (A) (A) (A) (A) (A) (A) (A) (A) (A) (A) (A)
                 (A) (A) (A) (A) (A) (A) (A) (A) (A) (A) (A) (A)
                 (A) (A) (A) (A) (A) (A) (A) (A) (A) (A) (A) (A)
                 (A) (A) (A) (A) (A) (A) (A) (A) (A) (A) (A) (A)
                 (A) (A) (A) (A) (A) (A) (A) (A) (A) (A) (A) (A)
                 (A) (A) (A) (A) (A) (A) (A) (A) (A) (A) (A) (A)
                 (A) (A) (A) (A) (A) (A) (A) (A) (A) (A) (A) (A)
                 (A) (A) (A) (A) (A) (A) (A) (A) (A) (A) (A) (A)
                 (A) (A) (A) (A) (A) (A) (A) (A) (A) (A) (A) (A)
                 (A) (A) (A) (A) (A) (A) (A) (A) (A) (A) (A) (A)
                 (A) (A) (A) (A) (A) (A) (A) (A) (A) (A) (A) (A)
                 (A) (A) (A) (A) (A) (A) (A) (A) (A) (A) (A) (A)
                 (A) (A) (A) (A) (A) (A) (A) (A) (A) (A) (A) (A)
                 (A) (A) (A) (A) (A) (A) (A) (A) (A) (A) (A) (A)
                 (A) (A) (A) (A) (A) (A) (A) (A) (A) (A) (A) (A)
 The electronic state is 1-A.
 Alpha  occ. eigenvalues --  -19.26969 -19.26143 -14.52376 -14.47632 -14.36521
 Alpha  occ. eigenvalues --  -10.45008 -10.44272 -10.38804 -10.36069 -10.35374
 Alpha  occ. eigenvalues --  -10.35277 -10.35070 -10.35010 -10.34924 -10.34694
 Alpha  occ. eigenvalues --  -10.33822 -10.33246 -10.32239 -10.30728 -10.30389
 Alpha  occ. eigenvalues --  -10.30288 -10.29327 -10.28264 -10.26330 -10.26027
 Alpha  occ. eigenvalues --   -1.17294  -1.14816  -1.05508  -1.04791  -1.00109
 Alpha  occ. eigenvalues --   -0.95570  -0.94959  -0.91966  -0.89401  -0.87567
 Alpha  occ. eigenvalues --   -0.85969  -0.83558  -0.80900  -0.78718  -0.76432
 Alpha  occ. eigenvalues --   -0.74724  -0.74590  -0.74428  -0.71858  -0.70009
 Alpha  occ. eigenvalues --   -0.68044  -0.67792  -0.63832  -0.63357  -0.62265
 Alpha  occ. eigenvalues --   -0.61752  -0.59302  -0.58991  -0.58266  -0.57221
 Alpha  occ. eigenvalues --   -0.56604  -0.55552  -0.55283  -0.54824  -0.53821
 Alpha  occ. eigenvalues --   -0.52895  -0.52408  -0.51534  -0.51297  -0.50941
 Alpha  occ. eigenvalues --   -0.50728  -0.50351  -0.49585  -0.48961  -0.47893
 Alpha  occ. eigenvalues --   -0.47514  -0.46674  -0.44938  -0.44922  -0.44398
 Alpha  occ. eigenvalues --   -0.44176  -0.42802  -0.42671  -0.42292  -0.41582
 Alpha  occ. eigenvalues --   -0.41281  -0.40396  -0.39878  -0.39683  -0.39571
 Alpha  occ. eigenvalues --   -0.37811  -0.37663  -0.36495  -0.35513  -0.29357
 Alpha  occ. eigenvalues --   -0.20960
 Alpha virt. eigenvalues --   -0.05736   0.01363   0.01801   0.05660   0.13318
 Alpha virt. eigenvalues --    0.13814   0.14487   0.15001   0.15281   0.16096
 Alpha virt. eigenvalues --    0.16308   0.16637   0.17288   0.18641   0.19618
 Alpha virt. eigenvalues --    0.20296   0.20672   0.21484   0.21696   0.22185
 Alpha virt. eigenvalues --    0.22968   0.23328   0.23741   0.23880   0.24090
 Alpha virt. eigenvalues --    0.24767   0.25273   0.25846   0.25977   0.26758
 Alpha virt. eigenvalues --    0.27051   0.27227   0.27975   0.28305   0.28715
 Alpha virt. eigenvalues --    0.29017   0.29477   0.29922   0.30241   0.30562
 Alpha virt. eigenvalues --    0.31148   0.31448   0.31701   0.32151   0.33396
 Alpha virt. eigenvalues --    0.33678   0.34704   0.36121   0.37108   0.37473
 Alpha virt. eigenvalues --    0.38437   0.39561   0.39677   0.39893   0.40620
 Alpha virt. eigenvalues --    0.42067   0.42454   0.44980   0.47618   0.47727
 Alpha virt. eigenvalues --    0.48479   0.49554   0.49790   0.50488   0.51027
 Alpha virt. eigenvalues --    0.51680   0.52059   0.52538   0.52737   0.53171
 Alpha virt. eigenvalues --    0.53549   0.54385   0.55380   0.55983   0.56454
 Alpha virt. eigenvalues --    0.57643   0.58098   0.58608   0.59160   0.60062
 Alpha virt. eigenvalues --    0.60474   0.61413   0.61757   0.62336   0.63113
 Alpha virt. eigenvalues --    0.64792   0.65242   0.65983   0.66407   0.66718
 Alpha virt. eigenvalues --    0.68510   0.69301   0.70389   0.70449   0.71038
 Alpha virt. eigenvalues --    0.71104   0.71329   0.71470   0.71969   0.72664
 Alpha virt. eigenvalues --    0.73100   0.73574   0.74020   0.74317   0.74662
 Alpha virt. eigenvalues --    0.75213   0.75443   0.76001   0.76147   0.76678
 Alpha virt. eigenvalues --    0.76952   0.77543   0.77862   0.78307   0.78531
 Alpha virt. eigenvalues --    0.78892   0.79056   0.79449   0.79515   0.79683
 Alpha virt. eigenvalues --    0.79895   0.80129   0.80437   0.80828   0.81562
 Alpha virt. eigenvalues --    0.82010   0.82589   0.82934   0.83041   0.83214
 Alpha virt. eigenvalues --    0.83891   0.84260   0.84458   0.85559   0.85895
 Alpha virt. eigenvalues --    0.86790   0.87804   0.88686   0.89201   0.90633
 Alpha virt. eigenvalues --    0.90844   0.92032   0.94611   0.95663   0.97288
 Alpha virt. eigenvalues --    0.97436   1.01375   1.01518   1.02555   1.04608
 Alpha virt. eigenvalues --    1.05371   1.06091   1.07464   1.08470   1.08867
 Alpha virt. eigenvalues --    1.09805   1.10141   1.11648   1.13337   1.14901
 Alpha virt. eigenvalues --    1.16296   1.17093   1.20169   1.20563   1.22349
 Alpha virt. eigenvalues --    1.23305   1.23514   1.25193   1.25355   1.26158
 Alpha virt. eigenvalues --    1.26885   1.27521   1.28042   1.28559   1.29314
 Alpha virt. eigenvalues --    1.29994   1.30521   1.30986   1.32313   1.33607
 Alpha virt. eigenvalues --    1.34284   1.36186   1.36912   1.37091   1.39564
 Alpha virt. eigenvalues --    1.39647   1.40575   1.41941   1.43467   1.44206
 Alpha virt. eigenvalues --    1.44660   1.46871   1.47342   1.48372   1.49982
 Alpha virt. eigenvalues --    1.52589   1.52621   1.55306   1.56450   1.56922
 Alpha virt. eigenvalues --    1.58416   1.59413   1.60185   1.62283   1.62337
 Alpha virt. eigenvalues --    1.64461   1.66466   1.66840   1.68185   1.68906
 Alpha virt. eigenvalues --    1.71905   1.72135   1.72905   1.74516   1.75666
 Alpha virt. eigenvalues --    1.76251   1.76913   1.77300   1.78513   1.79454
 Alpha virt. eigenvalues --    1.79752   1.80314   1.81148   1.81672   1.82606
 Alpha virt. eigenvalues --    1.82902   1.83293   1.83349   1.84377   1.84584
 Alpha virt. eigenvalues --    1.84647   1.86051   1.87271   1.87497   1.88322
 Alpha virt. eigenvalues --    1.88704   1.88882   1.89664   1.90797   1.91642
 Alpha virt. eigenvalues --    1.92210   1.92675   1.93012   1.93920   1.94093
 Alpha virt. eigenvalues --    1.95215   1.96242   1.96824   1.97434   1.97516
 Alpha virt. eigenvalues --    1.97894   1.98771   1.99520   1.99819   2.00282
 Alpha virt. eigenvalues --    2.00589   2.00785   2.01449   2.01597   2.02094
 Alpha virt. eigenvalues --    2.02226   2.03362   2.03781   2.04284   2.05981
 Alpha virt. eigenvalues --    2.07140   2.08538   2.08674   2.09341   2.09573
 Alpha virt. eigenvalues --    2.10265   2.11248   2.12564   2.14667   2.15325
 Alpha virt. eigenvalues --    2.15921   2.16483   2.16869   2.18144   2.18818
 Alpha virt. eigenvalues --    2.19529   2.20883   2.22405   2.22441   2.24536
 Alpha virt. eigenvalues --    2.26977   2.27526   2.28733   2.28945   2.29721
 Alpha virt. eigenvalues --    2.30119   2.30983   2.32016   2.32970   2.35133
 Alpha virt. eigenvalues --    2.36169   2.37490   2.38657   2.38937   2.40086
 Alpha virt. eigenvalues --    2.40556   2.42421   2.43241   2.47050   2.47352
 Alpha virt. eigenvalues --    2.48138   2.48776   2.49822   2.50244   2.51243
 Alpha virt. eigenvalues --    2.53555   2.54462   2.55778   2.56223   2.56718
 Alpha virt. eigenvalues --    2.57638   2.58555   2.59083   2.59478   2.62356
 Alpha virt. eigenvalues --    2.62820   2.64177   2.64676   2.65257   2.65697
 Alpha virt. eigenvalues --    2.67846   2.69526   2.70031   2.70566   2.72058
 Alpha virt. eigenvalues --    2.75191   2.76047   2.76878   2.77721   2.78503
 Alpha virt. eigenvalues --    2.80070   2.80658   2.81128   2.82859   2.83461
 Alpha virt. eigenvalues --    2.84970   2.86049   2.86480   2.86847   2.88461
 Alpha virt. eigenvalues --    2.90178   2.92692   2.92958   2.94143   2.95047
 Alpha virt. eigenvalues --    2.96186   2.97182   2.99906   2.99934   3.01385
 Alpha virt. eigenvalues --    3.03159   3.04965   3.05421   3.06610   3.07134
 Alpha virt. eigenvalues --    3.08503   3.08991   3.09493   3.12257   3.13027
 Alpha virt. eigenvalues --    3.14887   3.15926   3.16341   3.16652   3.17427
 Alpha virt. eigenvalues --    3.17685   3.19301   3.19861   3.23981   3.34225
 Alpha virt. eigenvalues --    3.35562   3.38349   3.43231   3.47618   3.53752
 Alpha virt. eigenvalues --    3.57643   3.65649   3.72744   3.75115
          Condensed to atoms (all electrons):
               1          2          3          4          5          6
     1  C    4.421454   0.400154   0.384493   0.404736   0.000121  -0.000001
     2  H    0.400154   0.608648  -0.025347  -0.015955  -0.000007  -0.000000
     3  H    0.384493  -0.025347   0.753164  -0.049173  -0.000424  -0.000002
     4  H    0.404736  -0.015955  -0.049173   0.663019   0.000002   0.000000
     5  C    0.000121  -0.000007  -0.000424   0.000002   5.480279   0.302938
     6  C   -0.000001  -0.000000  -0.000002   0.000000   0.302938   5.218985
     7  C    0.000000  -0.000000   0.000002  -0.000000  -0.014539   0.304073
     8  C   -0.000000   0.000000  -0.000002   0.000000  -0.006844   0.317180
     9  C   -0.000111   0.000012   0.000297  -0.000022   0.222101   0.003256
    10  C   -0.000218   0.000010  -0.000227   0.000009   0.303146   0.008886
    11  H    0.000270  -0.000048   0.003602  -0.000106  -0.048898   0.011261
    12  C   -0.000015   0.000000   0.000024  -0.000002   0.014032  -0.102953
    13  H   -0.000002   0.000000  -0.000001  -0.000000   0.013521  -0.001522
    14  C   -0.000000  -0.000000   0.000000  -0.000000   0.013559  -0.063410
    15  N    0.000000  -0.000000  -0.000000   0.000000  -0.001258  -0.018014
    16  C    0.000000  -0.000000  -0.000001  -0.000000  -0.106346   0.018747
    17  H    0.000000   0.000000  -0.000000   0.000000  -0.001182   0.010916
    18  C   -0.000014   0.000000   0.000120   0.000000   0.053509  -0.112188
    19  H   -0.000001   0.000000   0.000006  -0.000000   0.012213  -0.000791
    20  N   -0.002464   0.000044   0.009190   0.000252  -0.097870   0.004802
    21  H    0.000295   0.000023  -0.002027   0.000224  -0.031205  -0.000152
    22  C    0.000000  -0.000000  -0.000001  -0.000000  -0.114490   0.014301
    23  H    0.000000  -0.000000   0.000000  -0.000000  -0.000922   0.010921
    24  C    0.000000   0.000000   0.000000  -0.000000   0.011282  -0.063055
    25  O   -0.000000   0.000000   0.000000   0.000000  -0.000068   0.000975
    26  O    0.000000  -0.000000  -0.000000   0.000000  -0.000057   0.000881
    27  C   -0.003378  -0.000350   0.003257  -0.002348   0.008917  -0.000092
    28  H   -0.000168   0.000025  -0.000374   0.000173  -0.000521  -0.000017
    29  H    0.000101  -0.000013   0.000058  -0.000056  -0.000345   0.000013
    30  N    0.356892  -0.019307  -0.060191  -0.035631  -0.000029   0.000000
    31  C   -0.038020   0.005420   0.003307  -0.010668  -0.000200   0.000004
    32  H    0.005375  -0.000264  -0.000973   0.001762   0.000005  -0.000000
    33  H   -0.002802   0.000333  -0.004021   0.006044   0.000030   0.000000
    34  C   -0.041782  -0.003786   0.001500   0.004264   0.000004   0.000000
    35  H   -0.003943  -0.001065   0.006432  -0.001365   0.000002  -0.000001
    36  H   -0.005066   0.003666  -0.002007   0.002587  -0.000000   0.000000
    37  H    0.006082   0.000322  -0.000536  -0.000292   0.000001   0.000000
    38  C    0.000000   0.000000   0.000000  -0.000000   0.000076  -0.000057
    39  H   -0.000000   0.000000   0.000000   0.000000   0.000002  -0.000218
    40  H    0.000000  -0.000000  -0.000000  -0.000000   0.000002  -0.000226
    41  C   -0.000000   0.000000   0.000000   0.000000  -0.000003   0.000185
    42  H    0.000000  -0.000000  -0.000000  -0.000000   0.000002  -0.000026
    43  H   -0.000000   0.000000   0.000000   0.000000   0.000002  -0.000024
    44  C    0.000000  -0.000000  -0.000000  -0.000000   0.000000   0.000001
    45  H   -0.000000   0.000000   0.000000   0.000000  -0.000000   0.000000
    46  H    0.000000  -0.000000  -0.000000  -0.000000  -0.000000   0.000000
    47  C   -0.000000   0.000000   0.000000   0.000000   0.000000   0.000000
    48  H    0.000000  -0.000000  -0.000000   0.000000  -0.000000  -0.000000
    49  H   -0.000000   0.000000   0.000000   0.000000  -0.000000   0.000000
    50  H    0.000000  -0.000000  -0.000000  -0.000000  -0.000000   0.000000
               7          8          9         10         11         12
     1  C    0.000000  -0.000000  -0.000111  -0.000218   0.000270  -0.000015
     2  H   -0.000000   0.000000   0.000012   0.000010  -0.000048   0.000000
     3  H    0.000002  -0.000002   0.000297  -0.000227   0.003602   0.000024
     4  H   -0.000000   0.000000  -0.000022   0.000009  -0.000106  -0.000002
     5  C   -0.014539  -0.006844   0.222101   0.303146  -0.048898   0.014032
     6  C    0.304073   0.317180   0.003256   0.008886   0.011261  -0.102953
     7  C    5.897582  -0.072973  -0.148294   0.021664  -0.000013   0.055776
     8  C   -0.072973   5.789985   0.025694  -0.131176  -0.001389  -0.003095
     9  C   -0.148294   0.025694   5.164491  -0.125116  -0.022149   0.256113
    10  C    0.021664  -0.131176  -0.125116   5.163258   0.452008   0.014821
    11  H   -0.000013  -0.001389  -0.022149   0.452008   0.573039   0.000135
    12  C    0.055776  -0.003095   0.256113   0.014821   0.000135   5.314685
    13  H    0.014686   0.000012  -0.067048  -0.000073   0.000011   0.471988
    14  C   -0.039657   0.192548   0.000259  -0.002799   0.000023  -0.000261
    15  N   -0.118495  -0.116482  -0.000038  -0.000022  -0.000000   0.000065
    16  C    0.236527   0.013222   0.110646  -0.002928  -0.000078   0.221397
    17  H   -0.084529  -0.000396   0.013438   0.000022   0.000000  -0.054559
    18  C   -0.003013   0.056186   0.016104   0.316798  -0.050765  -0.000295
    19  H    0.000028   0.012278  -0.000274  -0.056767  -0.010031   0.000002
    20  N   -0.000324  -0.000056   0.468544   0.000027   0.002397  -0.091445
    21  H   -0.000088   0.000018   0.000387   0.008326  -0.000140   0.007386
    22  C    0.012272   0.294803  -0.003003   0.076531   0.011410   0.000120
    23  H   -0.000353  -0.074520   0.000031   0.011480  -0.000150   0.000000
    24  C    0.204476  -0.037920  -0.001525   0.000172   0.000001   0.019953
    25  O    0.000131  -0.135659   0.000001  -0.000040  -0.000000  -0.000000
    26  O   -0.142378   0.000131  -0.000029   0.000001  -0.000000   0.001999
    27  C   -0.000014   0.000004  -0.046230  -0.000176   0.000314  -0.002381
    28  H   -0.000022   0.000000  -0.004414   0.000126   0.000001   0.001211
    29  H   -0.000081   0.000000  -0.018975  -0.000028  -0.000035   0.007647
    30  N   -0.000000   0.000000   0.000059   0.000014  -0.000218  -0.000275
    31  C    0.000001  -0.000000   0.006247  -0.000091  -0.000028   0.000697
    32  H   -0.000000   0.000000  -0.000209   0.000002  -0.000006  -0.000048
    33  H   -0.000000   0.000000  -0.000214  -0.000031  -0.000039  -0.000008
    34  C   -0.000000  -0.000000   0.000007  -0.000000   0.000004  -0.000017
    35  H    0.000001  -0.000000   0.000093   0.000003   0.000018   0.000063
    36  H   -0.000000   0.000000  -0.000003  -0.000000  -0.000001  -0.000001
    37  H   -0.000000   0.000000  -0.000005  -0.000000  -0.000001  -0.000006
    38  C    0.008457   0.008098  -0.000000   0.000000   0.000000   0.000000
    39  H    0.004105  -0.000279   0.000000  -0.000000   0.000000  -0.000003
    40  H   -0.000261   0.004054  -0.000000   0.000000  -0.000000  -0.000000
    41  C   -0.001296  -0.001270  -0.000000  -0.000000   0.000000   0.000000
    42  H   -0.000092   0.000060   0.000000  -0.000000  -0.000000  -0.000001
    43  H    0.000054  -0.000099  -0.000000   0.000000   0.000000  -0.000000
    44  C   -0.000004  -0.000002   0.000000  -0.000000  -0.000000   0.000000
    45  H   -0.000000  -0.000002   0.000000  -0.000000   0.000000   0.000000
    46  H   -0.000002  -0.000000  -0.000000   0.000000  -0.000000  -0.000000
    47  C   -0.000000  -0.000000  -0.000000  -0.000000   0.000000  -0.000000
    48  H    0.000000   0.000000   0.000000   0.000000  -0.000000   0.000000
    49  H   -0.000000  -0.000000  -0.000000   0.000000   0.000000   0.000000
    50  H   -0.000000  -0.000000  -0.000000  -0.000000  -0.000000   0.000000
              13         14         15         16         17         18
     1  C   -0.000002  -0.000000   0.000000   0.000000   0.000000  -0.000014
     2  H    0.000000  -0.000000  -0.000000  -0.000000   0.000000   0.000000
     3  H   -0.000001   0.000000  -0.000000  -0.000001  -0.000000   0.000120
     4  H   -0.000000  -0.000000   0.000000  -0.000000   0.000000   0.000000
     5  C    0.013521   0.013559  -0.001258  -0.106346  -0.001182   0.053509
     6  C   -0.001522  -0.063410  -0.018014   0.018747   0.010916  -0.112188
     7  C    0.014686  -0.039657  -0.118495   0.236527  -0.084529  -0.003013
     8  C    0.000012   0.192548  -0.116482   0.013222  -0.000396   0.056186
     9  C   -0.067048   0.000259  -0.000038   0.110646   0.013438   0.016104
    10  C   -0.000073  -0.002799  -0.000022  -0.002928   0.000022   0.316798
    11  H    0.000011   0.000023  -0.000000  -0.000078   0.000000  -0.050765
    12  C    0.471988  -0.000261   0.000065   0.221397  -0.054559  -0.000295
    13  H    0.596844   0.000001  -0.000000  -0.069434  -0.010779   0.000002
    14  C    0.000001   4.693507   0.317072   0.000555   0.000048   0.020970
    15  N   -0.000000   0.317072   7.036267   0.010404   0.001034   0.000040
    16  C   -0.069434   0.000555   0.010404   5.162621   0.461971   0.000154
    17  H   -0.010779   0.000048   0.001034   0.461971   0.612195   0.000001
    18  C    0.000002   0.020970   0.000040   0.000154   0.000001   5.105127
    19  H   -0.000000  -0.000363   0.000000  -0.000000   0.000000   0.455100
    20  N   -0.013537   0.000000  -0.000000   0.006822  -0.000067   0.001063
    21  H   -0.000023  -0.000000  -0.000000   0.000056   0.000005   0.000342
    22  C    0.000000  -0.068130   0.009559  -0.000297   0.000001   0.243688
    23  H    0.000000  -0.010934   0.000985   0.000000  -0.000000  -0.057717
    24  C   -0.000402  -0.031040   0.301774  -0.064730  -0.010444  -0.000251
    25  O   -0.000000   0.742370  -0.105456   0.000007   0.000000   0.001758
    26  O   -0.000024  -0.000475  -0.105574   0.018477   0.014742  -0.000000
    27  C    0.006440  -0.000000   0.000000   0.000488  -0.000013  -0.000019
    28  H    0.000298   0.000000  -0.000000  -0.000217   0.000008   0.000004
    29  H   -0.000111   0.000000   0.000000   0.001680   0.000030   0.000001
    30  N   -0.000008  -0.000000  -0.000000  -0.000003   0.000000   0.000000
    31  C    0.000159   0.000000   0.000000  -0.000015  -0.000000  -0.000002
    32  H    0.000015  -0.000000  -0.000000  -0.000001   0.000000   0.000000
    33  H    0.000005  -0.000000  -0.000000   0.000002   0.000000  -0.000001
    34  C   -0.000045   0.000000  -0.000000   0.000000   0.000000  -0.000000
    35  H    0.000004   0.000000   0.000000   0.000001  -0.000000   0.000000
    36  H    0.000001  -0.000000  -0.000000  -0.000000   0.000000   0.000000
    37  H   -0.000048  -0.000000  -0.000000  -0.000000   0.000000  -0.000000
    38  C   -0.000000  -0.023395   0.221189  -0.000355  -0.000036  -0.000000
    39  H    0.000000   0.005552  -0.023078  -0.000002  -0.000008   0.000000
    40  H    0.000000  -0.009933  -0.023183   0.000006  -0.000001  -0.000003
    41  C    0.000000  -0.004935  -0.023693   0.000023   0.000006   0.000000
    42  H    0.000000  -0.001036  -0.008643  -0.000019  -0.000013  -0.000000
    43  H    0.000000   0.006483  -0.008622  -0.000001   0.000000  -0.000001
    44  C   -0.000000  -0.000079   0.004140  -0.000000   0.000000   0.000000
    45  H    0.000000  -0.000081   0.000094   0.000000   0.000000   0.000000
    46  H   -0.000000   0.000045   0.000095  -0.000000  -0.000000  -0.000000
    47  C    0.000000  -0.000011  -0.000129   0.000000   0.000000  -0.000000
    48  H   -0.000000   0.000000   0.000003   0.000000   0.000000   0.000000
    49  H    0.000000  -0.000000   0.000001  -0.000000   0.000000   0.000000
    50  H   -0.000000  -0.000003   0.000001  -0.000000  -0.000000   0.000000
              19         20         21         22         23         24
     1  C   -0.000001  -0.002464   0.000295   0.000000   0.000000   0.000000
     2  H    0.000000   0.000044   0.000023  -0.000000  -0.000000   0.000000
     3  H    0.000006   0.009190  -0.002027  -0.000001   0.000000   0.000000
     4  H   -0.000000   0.000252   0.000224  -0.000000  -0.000000  -0.000000
     5  C    0.012213  -0.097870  -0.031205  -0.114490  -0.000922   0.011282
     6  C   -0.000791   0.004802  -0.000152   0.014301   0.010921  -0.063055
     7  C    0.000028  -0.000324  -0.000088   0.012272  -0.000353   0.204476
     8  C    0.012278  -0.000056   0.000018   0.294803  -0.074520  -0.037920
     9  C   -0.000274   0.468544   0.000387  -0.003003   0.000031  -0.001525
    10  C   -0.056767   0.000027   0.008326   0.076531   0.011480   0.000172
    11  H   -0.010031   0.002397  -0.000140   0.011410  -0.000150   0.000001
    12  C    0.000002  -0.091445   0.007386   0.000120   0.000000   0.019953
    13  H   -0.000000  -0.013537  -0.000023   0.000000   0.000000  -0.000402
    14  C   -0.000363   0.000000  -0.000000  -0.068130  -0.010934  -0.031040
    15  N    0.000000  -0.000000  -0.000000   0.009559   0.000985   0.301774
    16  C   -0.000000   0.006822   0.000056  -0.000297   0.000000  -0.064730
    17  H    0.000000  -0.000067   0.000005   0.000001  -0.000000  -0.010444
    18  C    0.455100   0.001063   0.000342   0.243688  -0.057717  -0.000251
    19  H    0.597860   0.000002   0.000025  -0.067585  -0.009385   0.000001
    20  N    0.000002   6.364440   0.348052  -0.000035   0.000000   0.000010
    21  H    0.000025   0.348052   0.499612  -0.000023   0.000000   0.000001
    22  C   -0.067585  -0.000035  -0.000023   5.136025   0.458283   0.000611
    23  H   -0.009385   0.000000   0.000000   0.458283   0.608686   0.000045
    24  C    0.000001   0.000010   0.000001   0.000611   0.000045   4.696180
    25  O   -0.000014   0.000000   0.000000   0.016281   0.014506  -0.000511
    26  O    0.000000  -0.000000  -0.000000   0.000007   0.000000   0.748453
    27  C   -0.000000   0.301438  -0.031259   0.000001   0.000000   0.000000
    28  H   -0.000000  -0.027253  -0.004227  -0.000000  -0.000000  -0.000000
    29  H    0.000000  -0.017716   0.006513  -0.000000   0.000000   0.000001
    30  N   -0.000000   0.003872   0.000571  -0.000000  -0.000000   0.000000
    31  C    0.000000  -0.046607  -0.000342   0.000000  -0.000000   0.000000
    32  H   -0.000000   0.004856   0.000055  -0.000000  -0.000000  -0.000000
    33  H   -0.000000  -0.006464   0.006165   0.000000   0.000000   0.000000
    34  C    0.000000  -0.000191   0.000075   0.000000   0.000000   0.000000
    35  H   -0.000000   0.000274  -0.000111   0.000000   0.000000   0.000000
    36  H   -0.000000   0.000010   0.000012  -0.000000  -0.000000  -0.000000
    37  H    0.000000   0.000039   0.000003   0.000000  -0.000000  -0.000000
    38  C   -0.000000   0.000000   0.000000  -0.000318  -0.000030  -0.022188
    39  H    0.000000   0.000000  -0.000000   0.000005  -0.000001  -0.009519
    40  H   -0.000000  -0.000000   0.000000  -0.000008  -0.000006   0.005647
    41  C    0.000000   0.000000  -0.000000   0.000021   0.000005  -0.005195
    42  H   -0.000000  -0.000000   0.000000  -0.000001   0.000000   0.006497
    43  H    0.000000   0.000000  -0.000000  -0.000018  -0.000012  -0.001043
    44  C   -0.000000  -0.000000   0.000000  -0.000000   0.000000  -0.000088
    45  H    0.000000   0.000000  -0.000000  -0.000000  -0.000000   0.000046
    46  H    0.000000  -0.000000   0.000000   0.000000   0.000000  -0.000084
    47  C    0.000000   0.000000  -0.000000   0.000000   0.000000  -0.000011
    48  H   -0.000000  -0.000000   0.000000   0.000000   0.000000   0.000000
    49  H   -0.000000   0.000000  -0.000000  -0.000000  -0.000000  -0.000003
    50  H   -0.000000  -0.000000   0.000000  -0.000000   0.000000  -0.000000
              25         26         27         28         29         30
     1  C   -0.000000   0.000000  -0.003378  -0.000168   0.000101   0.356892
     2  H    0.000000  -0.000000  -0.000350   0.000025  -0.000013  -0.019307
     3  H    0.000000  -0.000000   0.003257  -0.000374   0.000058  -0.060191
     4  H    0.000000   0.000000  -0.002348   0.000173  -0.000056  -0.035631
     5  C   -0.000068  -0.000057   0.008917  -0.000521  -0.000345  -0.000029
     6  C    0.000975   0.000881  -0.000092  -0.000017   0.000013   0.000000
     7  C    0.000131  -0.142378  -0.000014  -0.000022  -0.000081  -0.000000
     8  C   -0.135659   0.000131   0.000004   0.000000   0.000000   0.000000
     9  C    0.000001  -0.000029  -0.046230  -0.004414  -0.018975   0.000059
    10  C   -0.000040   0.000001  -0.000176   0.000126  -0.000028   0.000014
    11  H   -0.000000  -0.000000   0.000314   0.000001  -0.000035  -0.000218
    12  C   -0.000000   0.001999  -0.002381   0.001211   0.007647  -0.000275
    13  H   -0.000000  -0.000024   0.006440   0.000298  -0.000111  -0.000008
    14  C    0.742370  -0.000475  -0.000000   0.000000   0.000000  -0.000000
    15  N   -0.105456  -0.105574   0.000000  -0.000000   0.000000  -0.000000
    16  C    0.000007   0.018477   0.000488  -0.000217   0.001680  -0.000003
    17  H    0.000000   0.014742  -0.000013   0.000008   0.000030   0.000000
    18  C    0.001758  -0.000000  -0.000019   0.000004   0.000001   0.000000
    19  H   -0.000014   0.000000  -0.000000  -0.000000   0.000000  -0.000000
    20  N    0.000000  -0.000000   0.301438  -0.027253  -0.017716   0.003872
    21  H    0.000000  -0.000000  -0.031259  -0.004227   0.006513   0.000571
    22  C    0.016281   0.000007   0.000001  -0.000000  -0.000000  -0.000000
    23  H    0.014506   0.000000   0.000000  -0.000000   0.000000  -0.000000
    24  C   -0.000511   0.748453   0.000000  -0.000000   0.000001   0.000000
    25  O    7.796935  -0.000019   0.000000  -0.000000   0.000000   0.000000
    26  O   -0.000019   7.801386   0.000000   0.000000   0.000000  -0.000000
    27  C    0.000000   0.000000   4.751670   0.360107   0.384860  -0.097969
    28  H   -0.000000   0.000000   0.360107   0.675428  -0.033005   0.008031
    29  H    0.000000   0.000000   0.384860  -0.033005   0.612414  -0.009384
    30  N    0.000000  -0.000000  -0.097969   0.008031  -0.009384   6.758878
    31  C    0.000000   0.000000   0.388597  -0.015475  -0.008848   0.385657
    32  H    0.000000  -0.000000  -0.040936   0.003438  -0.007211  -0.024923
    33  H   -0.000000  -0.000000  -0.037592  -0.003065   0.005751  -0.024869
    34  C    0.000000  -0.000000  -0.006100  -0.000135   0.007519   0.350856
    35  H   -0.000000  -0.000000   0.004024  -0.000223  -0.000390  -0.049214
    36  H    0.000000  -0.000000  -0.001021   0.000079  -0.000318  -0.039122
    37  H   -0.000000  -0.000000  -0.005914  -0.000073   0.004223  -0.021881
    38  C    0.001250   0.001923  -0.000000  -0.000000   0.000000  -0.000000
    39  H    0.000544   0.018779   0.000000   0.000000  -0.000000   0.000000
    40  H    0.018411   0.000558  -0.000000  -0.000000   0.000000  -0.000000
    41  C   -0.005797  -0.006371   0.000000   0.000000  -0.000000   0.000000
    42  H    0.000088   0.006956  -0.000000  -0.000000   0.000000  -0.000000
    43  H    0.006442   0.000099  -0.000000   0.000000  -0.000000   0.000000
    44  C   -0.000177  -0.000169   0.000000  -0.000000   0.000000  -0.000000
    45  H    0.000027  -0.000006   0.000000   0.000000  -0.000000   0.000000
    46  H   -0.000005   0.000028  -0.000000  -0.000000   0.000000  -0.000000
    47  C    0.000001   0.000001   0.000000   0.000000  -0.000000   0.000000
    48  H   -0.000000  -0.000000   0.000000  -0.000000   0.000000   0.000000
    49  H    0.000000  -0.000007   0.000000   0.000000  -0.000000   0.000000
    50  H   -0.000006   0.000000   0.000000  -0.000000   0.000000  -0.000000
              31         32         33         34         35         36
     1  C   -0.038020   0.005375  -0.002802  -0.041782  -0.003943  -0.005066
     2  H    0.005420  -0.000264   0.000333  -0.003786  -0.001065   0.003666
     3  H    0.003307  -0.000973  -0.004021   0.001500   0.006432  -0.002007
     4  H   -0.010668   0.001762   0.006044   0.004264  -0.001365   0.002587
     5  C   -0.000200   0.000005   0.000030   0.000004   0.000002  -0.000000
     6  C    0.000004  -0.000000   0.000000   0.000000  -0.000001   0.000000
     7  C    0.000001  -0.000000  -0.000000  -0.000000   0.000001  -0.000000
     8  C   -0.000000   0.000000   0.000000  -0.000000  -0.000000   0.000000
     9  C    0.006247  -0.000209  -0.000214   0.000007   0.000093  -0.000003
    10  C   -0.000091   0.000002  -0.000031  -0.000000   0.000003  -0.000000
    11  H   -0.000028  -0.000006  -0.000039   0.000004   0.000018  -0.000001
    12  C    0.000697  -0.000048  -0.000008  -0.000017   0.000063  -0.000001
    13  H    0.000159   0.000015   0.000005  -0.000045   0.000004   0.000001
    14  C    0.000000  -0.000000  -0.000000   0.000000   0.000000  -0.000000
    15  N    0.000000  -0.000000  -0.000000  -0.000000   0.000000  -0.000000
    16  C   -0.000015  -0.000001   0.000002   0.000000   0.000001  -0.000000
    17  H   -0.000000   0.000000   0.000000   0.000000  -0.000000   0.000000
    18  C   -0.000002   0.000000  -0.000001  -0.000000   0.000000   0.000000
    19  H    0.000000  -0.000000  -0.000000   0.000000  -0.000000  -0.000000
    20  N   -0.046607   0.004856  -0.006464  -0.000191   0.000274   0.000010
    21  H   -0.000342   0.000055   0.006165   0.000075  -0.000111   0.000012
    22  C    0.000000  -0.000000   0.000000   0.000000   0.000000  -0.000000
    23  H   -0.000000  -0.000000   0.000000   0.000000   0.000000  -0.000000
    24  C    0.000000  -0.000000   0.000000   0.000000   0.000000  -0.000000
    25  O    0.000000   0.000000  -0.000000   0.000000  -0.000000   0.000000
    26  O    0.000000  -0.000000  -0.000000  -0.000000  -0.000000  -0.000000
    27  C    0.388597  -0.040936  -0.037592  -0.006100   0.004024  -0.001021
    28  H   -0.015475   0.003438  -0.003065  -0.000135  -0.000223   0.000079
    29  H   -0.008848  -0.007211   0.005751   0.007519  -0.000390  -0.000318
    30  N    0.385657  -0.024923  -0.024869   0.350856  -0.049214  -0.039122
    31  C    4.468959   0.385601   0.394133  -0.042825   0.002115   0.001678
    32  H    0.385601   0.641856  -0.013352  -0.007068  -0.001264   0.002506
    33  H    0.394133  -0.013352   0.635001   0.006345  -0.000655  -0.000051
    34  C   -0.042825  -0.007068   0.006345   4.434493   0.396583   0.403062
    35  H    0.002115  -0.001264  -0.000655   0.396583   0.707387  -0.045879
    36  H    0.001678   0.002506  -0.000051   0.403062  -0.045879   0.660699
    37  H    0.000026   0.002858   0.000299   0.399435  -0.026443  -0.016847
    38  C   -0.000000  -0.000000   0.000000   0.000000   0.000000  -0.000000
    39  H   -0.000000   0.000000   0.000000   0.000000  -0.000000   0.000000
    40  H    0.000000  -0.000000   0.000000  -0.000000   0.000000  -0.000000
    41  C   -0.000000   0.000000  -0.000000   0.000000   0.000000  -0.000000
    42  H    0.000000  -0.000000   0.000000  -0.000000  -0.000000  -0.000000
    43  H   -0.000000   0.000000   0.000000   0.000000  -0.000000   0.000000
    44  C    0.000000  -0.000000   0.000000  -0.000000  -0.000000   0.000000
    45  H    0.000000   0.000000  -0.000000   0.000000  -0.000000   0.000000
    46  H    0.000000  -0.000000   0.000000  -0.000000  -0.000000   0.000000
    47  C   -0.000000   0.000000  -0.000000   0.000000   0.000000  -0.000000
    48  H    0.000000   0.000000   0.000000  -0.000000  -0.000000   0.000000
    49  H   -0.000000   0.000000  -0.000000   0.000000   0.000000   0.000000
    50  H   -0.000000  -0.000000   0.000000  -0.000000   0.000000  -0.000000
              37         38         39         40         41         42
     1  C    0.006082   0.000000  -0.000000   0.000000  -0.000000   0.000000
     2  H    0.000322   0.000000   0.000000  -0.000000   0.000000  -0.000000
     3  H   -0.000536   0.000000   0.000000  -0.000000   0.000000  -0.000000
     4  H   -0.000292  -0.000000   0.000000  -0.000000   0.000000  -0.000000
     5  C    0.000001   0.000076   0.000002   0.000002  -0.000003   0.000002
     6  C    0.000000  -0.000057  -0.000218  -0.000226   0.000185  -0.000026
     7  C   -0.000000   0.008457   0.004105  -0.000261  -0.001296  -0.000092
     8  C    0.000000   0.008098  -0.000279   0.004054  -0.001270   0.000060
     9  C   -0.000005  -0.000000   0.000000  -0.000000  -0.000000   0.000000
    10  C   -0.000000   0.000000  -0.000000   0.000000  -0.000000  -0.000000
    11  H   -0.000001   0.000000   0.000000  -0.000000   0.000000  -0.000000
    12  C   -0.000006   0.000000  -0.000003  -0.000000   0.000000  -0.000001
    13  H   -0.000048  -0.000000   0.000000   0.000000   0.000000   0.000000
    14  C   -0.000000  -0.023395   0.005552  -0.009933  -0.004935  -0.001036
    15  N   -0.000000   0.221189  -0.023078  -0.023183  -0.023693  -0.008643
    16  C   -0.000000  -0.000355  -0.000002   0.000006   0.000023  -0.000019
    17  H    0.000000  -0.000036  -0.000008  -0.000001   0.000006  -0.000013
    18  C   -0.000000  -0.000000   0.000000  -0.000003   0.000000  -0.000000
    19  H    0.000000  -0.000000   0.000000  -0.000000   0.000000  -0.000000
    20  N    0.000039   0.000000   0.000000  -0.000000   0.000000  -0.000000
    21  H    0.000003   0.000000  -0.000000   0.000000  -0.000000   0.000000
    22  C    0.000000  -0.000318   0.000005  -0.000008   0.000021  -0.000001
    23  H   -0.000000  -0.000030  -0.000001  -0.000006   0.000005   0.000000
    24  C   -0.000000  -0.022188  -0.009519   0.005647  -0.005195   0.006497
    25  O   -0.000000   0.001250   0.000544   0.018411  -0.005797   0.000088
    26  O   -0.000000   0.001923   0.018779   0.000558  -0.006371   0.006956
    27  C   -0.005914  -0.000000   0.000000  -0.000000   0.000000  -0.000000
    28  H   -0.000073  -0.000000   0.000000  -0.000000   0.000000  -0.000000
    29  H    0.004223   0.000000  -0.000000   0.000000  -0.000000   0.000000
    30  N   -0.021881  -0.000000   0.000000  -0.000000   0.000000  -0.000000
    31  C    0.000026  -0.000000  -0.000000   0.000000  -0.000000   0.000000
    32  H    0.002858  -0.000000   0.000000  -0.000000   0.000000  -0.000000
    33  H    0.000299   0.000000   0.000000   0.000000  -0.000000   0.000000
    34  C    0.399435   0.000000   0.000000  -0.000000   0.000000  -0.000000
    35  H   -0.026443   0.000000  -0.000000   0.000000   0.000000  -0.000000
    36  H   -0.016847  -0.000000   0.000000  -0.000000  -0.000000  -0.000000
    37  H    0.614483  -0.000000   0.000000   0.000000  -0.000000   0.000000
    38  C   -0.000000   4.608674   0.372586   0.373065   0.392635  -0.014884
    39  H    0.000000   0.372586   0.625593  -0.021637  -0.016876  -0.010730
    40  H    0.000000   0.373065  -0.021637   0.628238  -0.017824   0.007554
    41  C   -0.000000   0.392635  -0.016876  -0.017824   4.724619   0.369685
    42  H    0.000000  -0.014884  -0.010730   0.007554   0.369685   0.662786
    43  H   -0.000000  -0.015444   0.007517  -0.010759   0.369879  -0.029616
    44  C    0.000000  -0.044752  -0.003845  -0.003742   0.409223  -0.020210
    45  H    0.000000  -0.006423  -0.001601   0.006699  -0.025735   0.007759
    46  H   -0.000000  -0.006302   0.006643  -0.001604  -0.025874  -0.009493
    47  C   -0.000000   0.008100   0.000056   0.000050  -0.054876  -0.003988
    48  H    0.000000  -0.000396   0.000010   0.000010   0.007330  -0.000092
    49  H   -0.000000   0.000291  -0.000042   0.000020  -0.007382   0.005892
    50  H   -0.000000   0.000298   0.000020  -0.000042  -0.007496  -0.001302
              43         44         45         46         47         48
     1  C   -0.000000   0.000000  -0.000000   0.000000  -0.000000   0.000000
     2  H    0.000000  -0.000000   0.000000  -0.000000   0.000000  -0.000000
     3  H    0.000000  -0.000000   0.000000  -0.000000   0.000000  -0.000000
     4  H    0.000000  -0.000000   0.000000  -0.000000   0.000000   0.000000
     5  C    0.000002   0.000000  -0.000000  -0.000000   0.000000  -0.000000
     6  C   -0.000024   0.000001   0.000000   0.000000   0.000000  -0.000000
     7  C    0.000054  -0.000004  -0.000000  -0.000002  -0.000000   0.000000
     8  C   -0.000099  -0.000002  -0.000002  -0.000000  -0.000000   0.000000
     9  C   -0.000000   0.000000   0.000000  -0.000000  -0.000000   0.000000
    10  C    0.000000  -0.000000  -0.000000   0.000000  -0.000000   0.000000
    11  H    0.000000  -0.000000   0.000000  -0.000000   0.000000  -0.000000
    12  C   -0.000000   0.000000   0.000000  -0.000000  -0.000000   0.000000
    13  H    0.000000  -0.000000   0.000000  -0.000000   0.000000  -0.000000
    14  C    0.006483  -0.000079  -0.000081   0.000045  -0.000011   0.000000
    15  N   -0.008622   0.004140   0.000094   0.000095  -0.000129   0.000003
    16  C   -0.000001  -0.000000   0.000000  -0.000000   0.000000   0.000000
    17  H    0.000000   0.000000   0.000000  -0.000000   0.000000   0.000000
    18  C   -0.000001   0.000000   0.000000  -0.000000  -0.000000   0.000000
    19  H    0.000000  -0.000000   0.000000   0.000000   0.000000  -0.000000
    20  N    0.000000  -0.000000   0.000000  -0.000000   0.000000  -0.000000
    21  H   -0.000000   0.000000  -0.000000   0.000000  -0.000000   0.000000
    22  C   -0.000018  -0.000000  -0.000000   0.000000   0.000000   0.000000
    23  H   -0.000012   0.000000  -0.000000   0.000000   0.000000   0.000000
    24  C   -0.001043  -0.000088   0.000046  -0.000084  -0.000011   0.000000
    25  O    0.006442  -0.000177   0.000027  -0.000005   0.000001  -0.000000
    26  O    0.000099  -0.000169  -0.000006   0.000028   0.000001  -0.000000
    27  C   -0.000000   0.000000   0.000000  -0.000000   0.000000   0.000000
    28  H    0.000000  -0.000000   0.000000  -0.000000   0.000000  -0.000000
    29  H   -0.000000   0.000000  -0.000000   0.000000  -0.000000   0.000000
    30  N    0.000000  -0.000000   0.000000  -0.000000   0.000000   0.000000
    31  C   -0.000000   0.000000   0.000000   0.000000  -0.000000   0.000000
    32  H    0.000000  -0.000000   0.000000  -0.000000   0.000000   0.000000
    33  H    0.000000   0.000000  -0.000000   0.000000  -0.000000   0.000000
    34  C    0.000000  -0.000000   0.000000  -0.000000   0.000000  -0.000000
    35  H   -0.000000  -0.000000  -0.000000  -0.000000   0.000000  -0.000000
    36  H    0.000000   0.000000   0.000000   0.000000  -0.000000   0.000000
    37  H   -0.000000   0.000000   0.000000  -0.000000  -0.000000   0.000000
    38  C   -0.015444  -0.044752  -0.006423  -0.006302   0.008100  -0.000396
    39  H    0.007517  -0.003845  -0.001601   0.006643   0.000056   0.000010
    40  H   -0.010759  -0.003742   0.006699  -0.001604   0.000050   0.000010
    41  C    0.369879   0.409223  -0.025735  -0.025874  -0.054876   0.007330
    42  H   -0.029616  -0.020210   0.007759  -0.009493  -0.003988  -0.000092
    43  H    0.666054  -0.020564  -0.009570   0.007808  -0.003978  -0.000095
    44  C   -0.020564   4.646258   0.386680   0.387072   0.422741  -0.016477
    45  H   -0.009570   0.386680   0.662913  -0.029439  -0.024168  -0.005394
    46  H    0.007808   0.387072  -0.029439   0.661317  -0.024067  -0.005386
    47  C   -0.003978   0.422741  -0.024168  -0.024067   4.567659   0.390755
    48  H   -0.000095  -0.016477  -0.005394  -0.005386   0.390755   0.623912
    49  H   -0.001315  -0.022349   0.007144  -0.008087   0.397051  -0.021697
    50  H    0.005958  -0.022389  -0.008105   0.007139   0.396785  -0.021793
              49         50
     1  C   -0.000000   0.000000
     2  H    0.000000  -0.000000
     3  H    0.000000  -0.000000
     4  H    0.000000  -0.000000
     5  C   -0.000000  -0.000000
     6  C    0.000000   0.000000
     7  C   -0.000000  -0.000000
     8  C   -0.000000  -0.000000
     9  C   -0.000000  -0.000000
    10  C    0.000000  -0.000000
    11  H    0.000000  -0.000000
    12  C    0.000000   0.000000
    13  H    0.000000  -0.000000
    14  C   -0.000000  -0.000003
    15  N    0.000001   0.000001
    16  C   -0.000000  -0.000000
    17  H    0.000000  -0.000000
    18  C    0.000000   0.000000
    19  H   -0.000000  -0.000000
    20  N    0.000000  -0.000000
    21  H   -0.000000   0.000000
    22  C   -0.000000  -0.000000
    23  H   -0.000000   0.000000
    24  C   -0.000003  -0.000000
    25  O    0.000000  -0.000006
    26  O   -0.000007   0.000000
    27  C    0.000000   0.000000
    28  H    0.000000  -0.000000
    29  H   -0.000000   0.000000
    30  N    0.000000  -0.000000
    31  C   -0.000000  -0.000000
    32  H    0.000000  -0.000000
    33  H   -0.000000   0.000000
    34  C    0.000000  -0.000000
    35  H    0.000000   0.000000
    36  H    0.000000  -0.000000
    37  H   -0.000000  -0.000000
    38  C    0.000291   0.000298
    39  H   -0.000042   0.000020
    40  H    0.000020  -0.000042
    41  C   -0.007382  -0.007496
    42  H    0.005892  -0.001302
    43  H   -0.001315   0.005958
    44  C   -0.022349  -0.022389
    45  H    0.007144  -0.008105
    46  H   -0.008087   0.007139
    47  C    0.397051   0.396785
    48  H   -0.021697  -0.021793
    49  H    0.631740  -0.023957
    50  H   -0.023957   0.633212
 Mulliken charges:
               1
     1  C    0.118010
     2  H    0.047482
     3  H   -0.020145
     4  H    0.032546
     5  C   -0.010536
     6  C    0.134422
     7  C   -0.133407
     8  C   -0.132109
     9  C    0.149878
    10  C   -0.057614
    11  H    0.079605
    12  C   -0.132751
    13  H    0.059069
    14  C    0.263551
    15  N   -0.350034
    16  C   -0.019378
    17  H    0.047611
    18  C   -0.046701
    19  H    0.067694
    20  N   -0.212107
    21  H    0.191453
    22  C   -0.020012
    23  H    0.049087
    24  C    0.252858
    25  O   -0.351976
    26  O   -0.359314
    27  C    0.065672
    28  H    0.040258
    29  H    0.065705
    30  N   -0.481807
    31  C    0.120518
    32  H    0.047926
    33  H    0.039055
    34  C    0.097806
    35  H    0.013555
    36  H    0.036015
    37  H    0.044274
    38  C    0.137938
    39  H    0.046426
    40  H    0.044916
    41  C   -0.068989
    42  H    0.032867
    43  H    0.030865
    44  C   -0.101267
    45  H    0.039163
    46  H    0.040196
    47  C   -0.071970
    48  H    0.049312
    49  H    0.042700
    50  H    0.041682
 Sum of Mulliken charges =  -0.00000
 Mulliken charges with hydrogens summed into heavy atoms:
               1
     1  C    0.177893
     5  C   -0.010536
     6  C    0.134422
     7  C   -0.133407
     8  C   -0.132109
     9  C    0.149878
    10  C    0.021991
    12  C   -0.073682
    14  C    0.263551
    15  N   -0.350034
    16  C    0.028233
    18  C    0.020993
    20  N   -0.020654
    22  C    0.029076
    24  C    0.252858
    25  O   -0.351976
    26  O   -0.359314
    27  C    0.171635
    30  N   -0.481807
    31  C    0.207499
    34  C    0.191651
    38  C    0.229280
    41  C   -0.005257
    44  C   -0.021908
    47  C    0.061724
 Electronic spatial extent (au):  <R**2>=          13112.0034
 Charge=             -0.0000 electrons
 Dipole moment (field-independent basis, Debye):
    X=             13.5798    Y=              0.8173    Z=             -0.1006  Tot=             13.6048
 Quadrupole moment (field-independent basis, Debye-Ang):
   XX=           -119.6067   YY=           -149.3009   ZZ=           -149.3908
   XY=              3.0591   XZ=             -8.4318   YZ=             -1.4992
 Traceless Quadrupole moment (field-independent basis, Debye-Ang):
   XX=             19.8261   YY=             -9.8681   ZZ=             -9.9580
   XY=              3.0591   XZ=             -8.4318   YZ=             -1.4992
 Octapole moment (field-independent basis, Debye-Ang**2):
  XXX=            189.4410  YYY=             19.5465  ZZZ=              9.2753  XYY=             93.7495
  XXY=            -40.6846  XXZ=             -8.0736  XZZ=             17.7826  YZZ=             -1.7322
  YYZ=              7.8818  XYZ=             10.1642
 Hexadecapole moment (field-independent basis, Debye-Ang**3):
 XXXX=         -13250.4710 YYYY=          -2071.8619 ZZZZ=           -985.8832 XXXY=             72.9796
 XXXZ=            -72.4035 YYYX=            -11.7029 YYYZ=             20.0124 ZZZX=             54.5932
 ZZZY=              4.6188 XXYY=          -2807.8665 XXZZ=          -2474.4029 YYZZ=           -550.4669
 XXYZ=            -23.8309 YYXZ=            -37.3955 ZZXY=            -15.1860
 N-N= 2.123910526272D+03 E-N=-6.779585048688D+03  KE= 1.078515516960D+03
 1\1\GINC-X1001C4S3B1N0\SP\RwB97XD\def2SVP\C20H25N3O2\1005739\17-Jan-20
 24\0\\# wb97xd/def2SVP geom=check guess=read SCRF=(SMD, solvent=ethano
 l, NonEq=Read)\\07Bu-Naph-folded_wb97xd_EtOH\\0,1\C,0,4.794706,1.31535
 5,0.749526\H,0,5.069424,1.592897,1.772553\H,0,3.762087,1.635174,0.5324
 8\H,0,5.460848,1.797266,0.019312\C,0,-0.105635,0.549565,-0.520393\C,0,
 -1.500514,0.265321,-0.29947\C,0,-1.931839,-1.071626,-0.063872\C,0,-2.4
 48333,1.334037,-0.302425\C,0,0.829205,-0.544979,-0.520966\C,0,0.288022
 ,1.903743,-0.7166\H,0,1.338777,2.158574,-0.859327\C,0,0.365189,-1.8568
 06,-0.292032\H,0,1.065632,-2.692844,-0.304738\C,0,-3.852129,1.063473,-
 0.077735\N,0,-4.221284,-0.279248,0.125132\C,0,-0.979927,-2.117124,-0.0
 56866\H,0,-1.319251,-3.138966,0.120723\C,0,-0.663971,2.937895,-0.71622
 4\H,0,-0.33199,3.968858,-0.871133\N,0,2.182769,-0.251709,-0.724817\H,0
 ,2.335881,0.511472,-1.380965\C,0,-2.01051,2.670805,-0.516049\H,0,-2.75
 0885,3.472215,-0.513125\C,0,-3.334104,-1.361884,0.168429\O,0,-4.7331,1
 .949717,-0.055687\O,0,-3.770733,-2.508461,0.396805\C,0,3.185423,-1.286
 345,-0.827508\H,0,3.151236,-1.848956,-1.781306\H,0,3.047374,-2.020874,
 -0.021104\N,0,4.856164,-0.112844,0.578065\C,0,4.602329,-0.693986,-0.72
 6786\H,0,5.334898,-1.498305,-0.881578\H,0,4.754569,0.082064,-1.487838\
 C,0,5.044037,-0.957862,1.730317\H,0,4.228779,-0.767027,2.446265\H,0,5.
 99068,-0.677842,2.217277\H,0,5.061506,-2.01356,1.441408\C,0,-5.644361,
 -0.562992,0.345415\H,0,-5.845606,-1.563164,-0.059463\H,0,-6.218146,0.1
 73726,-0.231043\C,0,-6.055218,-0.505107,1.819462\H,0,-5.448708,-1.2300
 99,2.390221\H,0,-5.818148,0.496527,2.219147\C,0,-7.54218,-0.802325,2.0
 28881\H,0,-8.143332,-0.082678,1.443199\H,0,-7.776141,-1.799894,1.61365
 1\C,0,-7.969948,-0.748114,3.49508\H,0,-9.044574,-0.966404,3.61132\H,0,
 -7.414125,-1.482409,4.103334\H,0,-7.784456,0.248592,3.931262\\Version=
 ES64L-G16RevA.03\State=1-A\HF=-1090.8045136\RMSD=6.853e-09\Dipole=5.27
 478,0.3982137,-0.8170816\Quadrupole=12.675405,-7.9553283,-4.7200767,0.
 6019233,-9.1577678,-1.1514686\PG=C01 [X(C20H25N3O2)]\\@


 NATURE REVEALS EVERY SECRET ONCE.
                    - RALPH WALDO EMERSON
 Job cpu time:       0 days  0 hours 52 minutes 27.3 seconds.
 Elapsed time:       0 days  0 hours  0 minutes 52.5 seconds.
 File lengths (MBytes):  RWF=    912 Int=      0 D2E=      0 Chk=     44 Scr=      1
 Normal termination of Gaussian 16 at Wed Jan 17 10:10:30 2024.
