 Entering Gaussian System, Link 0=g16
 Initial command:
 /home/users/sutd/1008721/g16/l1.exe "/home/users/sutd/1008721/scratch/g16/scratch/Gau-335205.inp" -scrdir="/home/users/sutd/1008721/scratch/g16/scratch/"
 Entering Link 1 = /home/users/sutd/1008721/g16/l1.exe PID=    335206.
  
 Copyright (c) 1988-2019, Gaussian, Inc.  All Rights Reserved.
  
 This is part of the Gaussian(R) 16 program.  It is based on
 the Gaussian(R) 09 system (copyright 2009, Gaussian, Inc.),
 the Gaussian(R) 03 system (copyright 2003, Gaussian, Inc.),
 the Gaussian(R) 98 system (copyright 1998, Gaussian, Inc.),
 the Gaussian(R) 94 system (copyright 1995, Gaussian, Inc.),
 the Gaussian 92(TM) system (copyright 1992, Gaussian, Inc.),
 the Gaussian 90(TM) system (copyright 1990, Gaussian, Inc.),
 the Gaussian 88(TM) system (copyright 1988, Gaussian, Inc.),
 the Gaussian 86(TM) system (copyright 1986, Carnegie Mellon
 University), and the Gaussian 82(TM) system (copyright 1983,
 Carnegie Mellon University). Gaussian is a federally registered
 trademark of Gaussian, Inc.
  
 This software contains proprietary and confidential information,
 including trade secrets, belonging to Gaussian, Inc.
  
 This software is provided under written license and may be
 used, copied, transmitted, or stored only in accord with that
 written license.
  
 The following legend is applicable only to US Government
 contracts under FAR:
  
                    RESTRICTED RIGHTS LEGEND
  
 Use, reproduction and disclosure by the US Government is
 subject to restrictions as set forth in subparagraphs (a)
 and (c) of the Commercial Computer Software - Restricted
 Rights clause in FAR 52.227-19.
  
 Gaussian, Inc.
 340 Quinnipiac St., Bldg. 40, Wallingford CT 06492
  
  
 ---------------------------------------------------------------
 Warning -- This program may not be used in any manner that
 competes with the business of Gaussian, Inc. or will provide
 assistance to any competitor of Gaussian, Inc.  The licensee
 of this program is prohibited from giving any competitor of
 Gaussian, Inc. access to this program.  By using this program,
 the user acknowledges that Gaussian, Inc. is engaged in the
 business of creating and licensing software in the field of
 computational chemistry and represents and warrants to the
 licensee that it is not a competitor of Gaussian, Inc. and that
 it will not use this program in any manner prohibited above.
 ---------------------------------------------------------------
  

 Cite this work as:
 Gaussian 16, Revision C.01,
 M. J. Frisch, G. W. Trucks, H. B. Schlegel, G. E. Scuseria, 
 M. A. Robb, J. R. Cheeseman, G. Scalmani, V. Barone, 
 G. A. Petersson, H. Nakatsuji, X. Li, M. Caricato, A. V. Marenich, 
 J. Bloino, B. G. Janesko, R. Gomperts, B. Mennucci, H. P. Hratchian, 
 J. V. Ortiz, A. F. Izmaylov, J. L. Sonnenberg, D. Williams-Young, 
 F. Ding, F. Lipparini, F. Egidi, J. Goings, B. Peng, A. Petrone, 
 T. Henderson, D. Ranasinghe, V. G. Zakrzewski, J. Gao, N. Rega, 
 G. Zheng, W. Liang, M. Hada, M. Ehara, K. Toyota, R. Fukuda, 
 J. Hasegawa, M. Ishida, T. Nakajima, Y. Honda, O. Kitao, H. Nakai, 
 T. Vreven, K. Throssell, J. A. Montgomery, Jr., J. E. Peralta, 
 F. Ogliaro, M. J. Bearpark, J. J. Heyd, E. N. Brothers, K. N. Kudin, 
 V. N. Staroverov, T. A. Keith, R. Kobayashi, J. Normand, 
 K. Raghavachari, A. P. Rendell, J. C. Burant, S. S. Iyengar, 
 J. Tomasi, M. Cossi, J. M. Millam, M. Klene, C. Adamo, R. Cammi, 
 J. W. Ochterski, R. L. Martin, K. Morokuma, O. Farkas, 
 J. B. Foresman, and D. J. Fox, Gaussian, Inc., Wallingford CT, 2019.
 
 ******************************************
 Gaussian 16:  ES64L-G16RevC.01  3-Jul-2019
                 7-Oct-2025 
 ******************************************
 %nprocshared=32
 Will use up to   32 processors via shared memory.
 %mem=64GB
 %oldchk=01BDP-NH2_ethanol_wb97xd_wb97xd_wb97xd.chk
 %chk=03BDP-NH2_ethanol_wb97xd_wb97xd_wb97xd.chk
 Copying data from "01BDP-NH2_ethanol_wb97xd_wb97xd_wb97xd.chk" to current chk file "03BDP-NH2_ethanol_wb97xd_wb97xd_wb97xd.chk"
 IOpt=  2 FromEx=T IUOpen= 4 IOptOp= 5 NList=   0 IFRang= 0 IUIn= 4 IUOut= 2.
 ----------------------------------------------------------------------
 # wb97xd/def2tzvp geom=check guess=read TD=(NStates=3, Root=1) SCRF=(S
 MD, solvent=ethanol, CorrectedLR)
 ----------------------------------------------------------------------
 1/29=2,30=1,38=1,172=1/1;
 2/12=2,40=1/2;
 3/5=44,7=101,11=9,14=-4,25=1,30=1,70=32201,71=1,72=4,74=-58,116=-2/1,2,3,8;
 4/5=1/1;
 5/5=2,38=6,53=4/2;
 8/6=1,10=1,107=1,108=3/1;
 9/8=1,15=1,41=3,42=1,70=2,73=21/14;
 10/5=4,13=10,28=1,74=10/2;
 6/7=2,8=2,9=2,10=2,22=-1/1;
 99/5=1,9=1/99;
 ------------------------------------
 BDP-NH2_ethanol_wb97xd_wb97xd_wb97xd
 ------------------------------------
 Structure from the checkpoint file:  "03BDP-NH2_ethanol_wb97xd_wb97xd_wb97xd.chk"
 Charge =  0 Multiplicity = 1
 Redundant internal coordinates found in file.  (old form).
 C,0,0.625275685,-1.2128190873,-0.0832037801
 C,0,0.6278562014,1.2166982343,0.0512962516
 C,0,-0.0905361151,0.002397902,-0.0095930995
 C,0,0.1725289992,-2.5407430983,-0.2598517274
 C,0,1.3006139792,-3.3542754325,-0.3216725766
 C,0,2.4125415017,-2.5083393033,-0.2006247532
 H,0,1.331473642,-4.4338758655,-0.4541253295
 C,0,2.418720588,2.5105776135,0.124998265
 C,0,0.1795260012,2.5487511005,0.2073078193
 C,0,1.3097043485,3.3610332681,0.2406550113
 H,0,1.3437629052,4.4432124546,0.3491234486
 N,0,2.0126008996,-1.2373152943,-0.0607775982
 N,0,2.0151465594,1.2377957484,0.0145446982
 B,0,2.9420231115,-0.0019028311,0.0071488297
 F,0,3.7099877557,-0.0321021272,1.1741287045
 F,0,3.7884720619,0.0256044535,-1.1028039209
 C,0,-1.5562888389,0.0020305537,0.000082175
 C,0,-2.2924847543,0.8581105796,-0.8421346991
 C,0,-2.2779060775,-0.8570428334,0.8518529085
 C,0,-3.6763305988,0.8518911555,-0.8438693432
 H,0,-1.7659801258,1.5116539363,-1.5410730297
 C,0,-3.6615389545,-0.8525566617,0.8759497025
 H,0,-1.7392204944,-1.5139523015,1.538239247
 C,0,-4.3977922944,0.0011179901,0.0237801001
 H,0,-4.2231298573,1.5065599199,-1.5271135692
 H,0,-4.1963599189,-1.5105617432,1.5654089965
 H,0,-0.8573424091,2.8642884272,0.3009841476
 H,0,3.4786338986,2.7641212636,0.1318660952
 H,0,-0.8660844974,-2.851389824,-0.3510853475
 H,0,3.4717817751,-2.7638033683,-0.221451716
 N,0,-5.7562262712,0.0249296992,0.0593092343
 H,0,-6.2517047277,-0.7173039906,0.5373188997
 H,0,-6.2618859779,0.5027124621,-0.6761330445
 Recover connectivity data from disk.
                           ----------------------------
                           !    Current Parameters    !
                           ! (Angstroms and Degrees)  !
 --------------------------                            --------------------------
 ! Name  Definition              Value                                          !
 --------------------------------------------------------------------------------
 ! R1    R(1,3)                  1.4123                                         !
 ! R2    R(1,4)                  1.4141                                         !
 ! R3    R(1,12)                 1.3877                                         !
 ! R4    R(2,3)                  1.4122                                         !
 ! R5    R(2,9)                  1.4141                                         !
 ! R6    R(2,13)                 1.3879                                         !
 ! R7    R(3,17)                 1.4658                                         !
 ! R8    R(4,5)                  1.3922                                         !
 ! R9    R(4,29)                 1.0879                                         !
 ! R10   R(5,6)                  1.4024                                         !
 ! R11   R(5,7)                  1.0881                                         !
 ! R12   R(6,12)                 1.3398                                         !
 ! R13   R(6,30)                 1.0898                                         !
 ! R14   R(8,10)                 1.4023                                         !
 ! R15   R(8,13)                 1.3398                                         !
 ! R16   R(8,28)                 1.0898                                         !
 ! R17   R(9,10)                 1.3922                                         !
 ! R18   R(9,27)                 1.0879                                         !
 ! R19   R(10,11)                1.0881                                         !
 ! R20   R(12,14)                1.5475                                         !
 ! R21   R(13,14)                1.5479                                         !
 ! R22   R(14,15)                1.3973                                         !
 ! R23   R(14,16)                1.3961                                         !
 ! R24   R(17,18)                1.4086                                         !
 ! R25   R(17,19)                1.4086                                         !
 ! R26   R(18,20)                1.3839                                         !
 ! R27   R(18,21)                1.0922                                         !
 ! R28   R(19,22)                1.3838                                         !
 ! R29   R(19,23)                1.0922                                         !
 ! R30   R(20,24)                1.4132                                         !
 ! R31   R(20,25)                1.0929                                         !
 ! R32   R(22,24)                1.4132                                         !
 ! R33   R(22,26)                1.0929                                         !
 ! R34   R(24,31)                1.3591                                         !
 ! R35   R(31,32)                1.0124                                         !
 ! R36   R(31,33)                1.0123                                         !
 ! A1    A(3,1,4)              130.7135                                         !
 ! A2    A(3,1,12)             121.4025                                         !
 ! A3    A(4,1,12)             107.7898                                         !
 ! A4    A(3,2,9)              130.8018                                         !
 ! A5    A(3,2,13)             121.3587                                         !
 ! A6    A(9,2,13)             107.788                                          !
 ! A7    A(1,3,2)              118.966                                          !
 ! A8    A(1,3,17)             120.4617                                         !
 ! A9    A(2,3,17)             120.5721                                         !
 ! A10   A(1,4,5)              107.1496                                         !
 ! A11   A(1,4,29)             125.7532                                         !
 ! A12   A(5,4,29)             127.0844                                         !
 ! A13   A(4,5,6)              106.6274                                         !
 ! A14   A(4,5,7)              127.456                                          !
 ! A15   A(6,5,7)              125.9097                                         !
 ! A16   A(5,6,12)             110.1564                                         !
 ! A17   A(5,6,30)             128.8732                                         !
 ! A18   A(12,6,30)            120.9651                                         !
 ! A19   A(10,8,13)            110.1638                                         !
 ! A20   A(10,8,28)            128.8666                                         !
 ! A21   A(13,8,28)            120.9625                                         !
 ! A22   A(2,9,10)             107.1496                                         !
 ! A23   A(2,9,27)             125.7962                                         !
 ! A24   A(10,9,27)            127.0455                                         !
 ! A25   A(8,10,9)             106.6293                                         !
 ! A26   A(8,10,11)            125.9163                                         !
 ! A27   A(9,10,11)            127.4491                                         !
 ! A28   A(1,12,6)             108.2694                                         !
 ! A29   A(1,12,14)            125.9479                                         !
 ! A30   A(6,12,14)            125.6381                                         !
 ! A31   A(2,13,8)             108.2605                                         !
 ! A32   A(2,13,14)            125.9068                                         !
 ! A33   A(8,13,14)            125.5107                                         !
 ! A34   A(12,14,13)           106.2573                                         !
 ! A35   A(12,14,15)           110.4564                                         !
 ! A36   A(12,14,16)           110.1796                                         !
 ! A37   A(13,14,15)           110.024                                          !
 ! A38   A(13,14,16)           110.5517                                         !
 ! A39   A(15,14,16)           109.3401                                         !
 ! A40   A(3,17,18)            121.2336                                         !
 ! A41   A(3,17,19)            121.092                                          !
 ! A42   A(18,17,19)           117.6743                                         !
 ! A43   A(17,18,20)           121.376                                          !
 ! A44   A(17,18,21)           119.627                                          !
 ! A45   A(20,18,21)           118.9439                                         !
 ! A46   A(17,19,22)           121.3828                                         !
 ! A47   A(17,19,23)           119.6145                                         !
 ! A48   A(22,19,23)           118.957                                          !
 ! A49   A(18,20,24)           120.8269                                         !
 ! A50   A(18,20,25)           119.8949                                         !
 ! A51   A(24,20,25)           119.277                                          !
 ! A52   A(19,22,24)           120.8221                                         !
 ! A53   A(19,22,26)           119.8896                                         !
 ! A54   A(24,22,26)           119.287                                          !
 ! A55   A(20,24,22)           117.8999                                         !
 ! A56   A(20,24,31)           121.0486                                         !
 ! A57   A(22,24,31)           121.0349                                         !
 ! A58   A(24,31,32)           119.2537                                         !
 ! A59   A(24,31,33)           119.2436                                         !
 ! A60   A(32,31,33)           116.3961                                         !
 ! D1    D(4,1,3,2)           -174.2732                                         !
 ! D2    D(4,1,3,17)             5.5795                                         !
 ! D3    D(12,1,3,2)             1.7408                                         !
 ! D4    D(12,1,3,17)         -178.4065                                         !
 ! D5    D(3,1,4,5)            177.3049                                         !
 ! D6    D(3,1,4,29)            -1.4641                                         !
 ! D7    D(12,1,4,5)             0.8773                                         !
 ! D8    D(12,1,4,29)         -177.8917                                         !
 ! D9    D(3,1,12,6)          -177.4487                                         !
 ! D10   D(3,1,12,14)           -1.6317                                         !
 ! D11   D(4,1,12,6)            -0.6208                                         !
 ! D12   D(4,1,12,14)          175.1962                                         !
 ! D13   D(9,2,3,1)           -175.8121                                         !
 ! D14   D(9,2,3,17)             4.3354                                         !
 ! D15   D(13,2,3,1)             1.2388                                         !
 ! D16   D(13,2,3,17)         -178.6137                                         !
 ! D17   D(3,2,9,10)           178.3104                                         !
 ! D18   D(3,2,9,27)            -0.6731                                         !
 ! D19   D(13,2,9,10)            0.9549                                         !
 ! D20   D(13,2,9,27)         -178.0286                                         !
 ! D21   D(3,2,13,8)          -178.3369                                         !
 ! D22   D(3,2,13,14)           -4.5825                                         !
 ! D23   D(9,2,13,8)            -0.6809                                         !
 ! D24   D(9,2,13,14)          173.0734                                         !
 ! D25   D(1,3,17,18)         -132.0658                                         !
 ! D26   D(1,3,17,19)           47.8441                                         !
 ! D27   D(2,3,17,18)           47.7845                                         !
 ! D28   D(2,3,17,19)         -132.3056                                         !
 ! D29   D(1,4,5,6)             -0.7899                                         !
 ! D30   D(1,4,5,7)           -179.8678                                         !
 ! D31   D(29,4,5,6)           177.9579                                         !
 ! D32   D(29,4,5,7)            -1.1201                                         !
 ! D33   D(4,5,6,12)             0.4261                                         !
 ! D34   D(4,5,6,30)          -178.7298                                         !
 ! D35   D(7,5,6,12)           179.5223                                         !
 ! D36   D(7,5,6,30)             0.3665                                         !
 ! D37   D(5,6,12,1)             0.1244                                         !
 ! D38   D(5,6,12,14)         -175.7089                                         !
 ! D39   D(30,6,12,1)          179.358                                          !
 ! D40   D(30,6,12,14)           3.5247                                         !
 ! D41   D(13,8,10,9)            0.4553                                         !
 ! D42   D(13,8,10,11)         179.6654                                         !
 ! D43   D(28,8,10,9)         -178.5638                                         !
 ! D44   D(28,8,10,11)           0.6463                                         !
 ! D45   D(10,8,13,2)            0.144                                          !
 ! D46   D(10,8,13,14)        -173.6414                                         !
 ! D47   D(28,8,13,2)          179.2533                                         !
 ! D48   D(28,8,13,14)           5.4679                                         !
 ! D49   D(2,9,10,8)            -0.8548                                         !
 ! D50   D(2,9,10,11)          179.951                                          !
 ! D51   D(27,9,10,8)          178.1122                                         !
 ! D52   D(27,9,10,11)          -1.082                                          !
 ! D53   D(1,12,14,13)          -1.1294                                         !
 ! D54   D(1,12,14,15)         118.1756                                         !
 ! D55   D(1,12,14,16)        -120.9155                                         !
 ! D56   D(6,12,14,13)         173.9815                                         !
 ! D57   D(6,12,14,15)         -66.7135                                         !
 ! D58   D(6,12,14,16)          54.1954                                         !
 ! D59   D(2,13,14,12)           4.2159                                         !
 ! D60   D(2,13,14,15)        -115.3715                                         !
 ! D61   D(2,13,14,16)         123.7595                                         !
 ! D62   D(8,13,14,12)         176.9243                                         !
 ! D63   D(8,13,14,15)          57.3368                                         !
 ! D64   D(8,13,14,16)         -63.5321                                         !
 ! D65   D(3,17,18,20)         179.425                                          !
 ! D66   D(3,17,18,21)           2.1054                                         !
 ! D67   D(19,17,18,20)         -0.4879                                         !
 ! D68   D(19,17,18,21)       -177.8074                                         !
 ! D69   D(3,17,19,22)         179.3187                                         !
 ! D70   D(3,17,19,23)           1.8044                                         !
 ! D71   D(18,17,19,22)         -0.7683                                         !
 ! D72   D(18,17,19,23)       -178.2826                                         !
 ! D73   D(17,18,20,24)          1.3114                                         !
 ! D74   D(17,18,20,25)       -178.3029                                         !
 ! D75   D(21,18,20,24)        178.6489                                         !
 ! D76   D(21,18,20,25)         -0.9654                                         !
 ! D77   D(17,19,22,24)          1.2057                                         !
 ! D78   D(17,19,22,26)       -178.3793                                         !
 ! D79   D(23,19,22,24)        178.7359                                         !
 ! D80   D(23,19,22,26)         -0.8491                                         !
 ! D81   D(18,20,24,22)         -0.8649                                         !
 ! D82   D(18,20,24,31)        177.6663                                         !
 ! D83   D(25,20,24,22)        178.7517                                         !
 ! D84   D(25,20,24,31)         -2.7171                                         !
 ! D85   D(19,22,24,20)         -0.3784                                         !
 ! D86   D(19,22,24,31)       -178.9098                                         !
 ! D87   D(26,22,24,20)        179.209                                          !
 ! D88   D(26,22,24,31)          0.6776                                         !
 ! D89   D(20,24,31,32)        167.2664                                         !
 ! D90   D(20,24,31,33)         13.424                                          !
 ! D91   D(22,24,31,32)        -14.2486                                         !
 ! D92   D(22,24,31,33)       -168.091                                          !
 --------------------------------------------------------------------------------
                          Input orientation:                          
 ---------------------------------------------------------------------
 Center     Atomic      Atomic             Coordinates (Angstroms)
 Number     Number       Type             X           Y           Z
 ---------------------------------------------------------------------
      1          6           0        0.625276   -1.212819   -0.083204
      2          6           0        0.627856    1.216698    0.051296
      3          6           0       -0.090536    0.002398   -0.009593
      4          6           0        0.172529   -2.540743   -0.259852
      5          6           0        1.300614   -3.354275   -0.321673
      6          6           0        2.412542   -2.508339   -0.200625
      7          1           0        1.331474   -4.433876   -0.454125
      8          6           0        2.418721    2.510578    0.124998
      9          6           0        0.179526    2.548751    0.207308
     10          6           0        1.309704    3.361033    0.240655
     11          1           0        1.343763    4.443212    0.349123
     12          7           0        2.012601   -1.237315   -0.060778
     13          7           0        2.015147    1.237796    0.014545
     14          5           0        2.942023   -0.001903    0.007149
     15          9           0        3.709988   -0.032102    1.174129
     16          9           0        3.788472    0.025604   -1.102804
     17          6           0       -1.556289    0.002031    0.000082
     18          6           0       -2.292485    0.858111   -0.842135
     19          6           0       -2.277906   -0.857043    0.851853
     20          6           0       -3.676331    0.851891   -0.843869
     21          1           0       -1.765980    1.511654   -1.541073
     22          6           0       -3.661539   -0.852557    0.875950
     23          1           0       -1.739220   -1.513952    1.538239
     24          6           0       -4.397792    0.001118    0.023780
     25          1           0       -4.223130    1.506560   -1.527114
     26          1           0       -4.196360   -1.510562    1.565409
     27          1           0       -0.857342    2.864288    0.300984
     28          1           0        3.478634    2.764121    0.131866
     29          1           0       -0.866084   -2.851390   -0.351085
     30          1           0        3.471782   -2.763803   -0.221452
     31          7           0       -5.756226    0.024930    0.059309
     32          1           0       -6.251705   -0.717304    0.537319
     33          1           0       -6.261886    0.502712   -0.676133
 ---------------------------------------------------------------------
                    Distance matrix (angstroms):
                    1          2          3          4          5
     1  C    0.000000
     2  C    2.433239   0.000000
     3  C    1.412288   1.412204   0.000000
     4  C    1.414060   3.797697   2.568930   0.000000
     5  C    2.258049   4.635246   3.646909   1.392204   0.000000
     6  C    2.210538   4.138172   3.550450   2.241030   1.402371
     7  H    3.318359   5.716600   4.679770   2.228194   1.088133
     8  C    4.138052   2.210600   3.550415   5.541600   5.987168
     9  C    3.799013   1.414109   2.569804   5.110894   6.031781
    10  C    4.636103   2.258085   3.647428   6.031139   6.738818
    11  H    5.717851   3.318376   4.680462   7.107621   7.826407
    12  N    1.387723   2.819975   2.441863   2.263718   2.248669
    13  N    2.819008   1.387937   2.441452   4.212824   4.659476
    14  B    2.615684   2.615780   3.032608   3.766576   3.747099
    15  F    3.534180   3.509956   3.980750   4.567625   4.367990
    16  F    3.546701   3.569334   4.030180   4.513508   4.268863
    17  C    2.498403   2.499706   1.465785   3.085786   4.419300
    18  C    3.657602   3.074930   2.504785   4.238815   5.561064
    19  C    3.070728   3.658517   2.503061   3.174172   4.518754
    20  C    4.831714   4.411398   3.778304   5.163794   6.537163
    21  H    3.907204   2.890171   2.725875   4.671324   5.879473
    22  C    4.407555   4.833299   3.777194   4.340518   5.684704
    23  H    2.882811   3.907749   2.722731   2.818194   4.010817
    24  C    5.168781   5.170642   4.307386   5.237303   6.621921
    25  H    5.743425   5.109546   4.652279   6.108063   7.456041
    26  H    5.104385   5.744871   4.650534   4.845621   6.097301
    27  H    4.355291   2.232199   2.979072   5.530781   6.611733
    28  H    4.899384   3.244679   4.515097   6.263015   6.510318
    29  H    2.231777   4.352368   2.976944   1.087908   2.224487
    30  H    3.244574   4.899663   4.515181   3.307008   2.252259
    31  N    6.501992   6.494373   5.666154   6.467973   7.833465
    32  H    6.922676   7.162747   6.227125   6.725414   8.045434
    33  H    7.122332   6.964731   6.227371   7.130050   8.496670
                    6          7          8          9         10
     6  C    0.000000
     7  H    2.222760   0.000000
     8  C    5.029473   7.052866   0.000000
     9  C    5.543188   7.107852   2.241032   0.000000
    10  C    5.988365   7.825842   1.402344   1.392199   0.000000
    11  H    7.054685   8.913364   2.222801   2.228125   1.088135
    12  N    1.339780   3.291908   3.774407   4.215013   4.661516
    13  N    3.773294   5.731921   1.339793   2.263905   2.248758
    14  B    2.570164   4.738041   2.569103   3.765274   3.745441
    15  F    3.115295   5.261573   3.038629   4.478806   4.259824
    16  F    3.021255   5.132698   3.091732   4.594252   4.367408
    17  C    4.700410   5.312508   4.702033   3.088977   4.422069
    18  C    5.820807   6.425632   5.085415   3.173394   4.518055
    19  C    5.082793   5.246612   5.824731   4.248981   5.571057
    20  C    6.984216   7.291731   6.390586   4.341882   5.686170
    21  H    5.951234   6.791539   4.613606   2.813788   4.006818
    22  C    6.387103   6.286901   6.988859   5.173950   6.547610
    23  H    4.609727   4.682375   5.956724   4.685992   5.894502
    24  C    7.261431   7.260995   7.264467   5.241752   6.626582
    25  H    7.868362   8.203274   6.917492   4.845385   6.097240
    26  H    6.913177   6.571243   7.874239   6.121343   7.470218
    27  H    6.309428   7.656651   3.299799   1.087858   2.224070
    28  H    5.389429   7.534245   1.089838   3.306991   2.252198
    29  H    3.299956   2.710008   6.306132   5.528709   6.608965
    30  H    1.089810   2.724738   5.389625   6.264664   6.511662
    31  N    8.556505   8.389282   8.544736   6.451723   7.816000
    32  H    8.878149   8.502968   9.260967   7.220578   8.596264
    33  H    9.194468   9.059708   8.945740   6.816049   8.144905
                   11         12         13         14         15
    11  H    0.000000
    12  N    5.734436   0.000000
    13  N    3.292020   2.476258   0.000000
    14  B    4.736078   1.547477   1.547904   0.000000
    15  F    5.129142   2.420466   2.414490   1.397327   0.000000
    16  F    5.253566   2.415472   2.421272   1.396147   2.279016
    17  C    5.315659   3.778446   3.779216   4.498319   5.395667
    18  C    5.243505   4.851298   4.408372   5.372241   6.394331
    19  C    6.439094   4.402948   4.849715   5.356533   6.053037
    20  C    6.286665   6.110807   5.768770   6.727243   7.707883
    21  H    4.673048   4.901610   4.097788   5.182001   6.304104
    22  C    7.305872   5.763797   6.110348   6.714571   7.423036
    23  H    6.812239   4.087731   4.897860   5.152143   5.658827
    24  C    7.266602   6.529472   6.531098   7.339835   8.189048
    25  H    6.567685   6.968740   6.431566   7.481232   8.520478
    26  H    8.223122   6.424200   6.967170   7.460612   8.052905
    27  H    2.709277   5.019024   3.313415   4.768288   5.478318
    28  H    2.724743   4.265895   2.117836   2.820354   2.993109
    29  H    7.654080   3.313057   5.015637   4.769653   5.587047
    30  H    7.536252   2.117827   4.265006   2.821524   3.076781
    31  N    8.367500   7.871617   7.865576   8.698447   9.531804
    32  H    9.184633   8.302221   8.510966   9.236748  10.005516
    33  H    8.626969   8.477824   8.338264   9.243022  10.156169
                   16         17         18         19         20
    16  F    0.000000
    17  C    5.457415   0.000000
    18  C    6.143212   1.408612   0.000000
    19  C    6.434337   1.408635   2.410717   0.000000
    20  C    7.514857   2.434973   1.383861   2.784155   0.000000
    21  H    5.766486   2.167508   1.092173   3.405714   2.137947
    22  C    7.758176   2.435065   2.784332   1.383850   2.421392
    23  H    6.316702   2.167394   3.405725   1.092171   3.876087
    24  C    8.263457   2.841602   2.432399   2.432296   1.413201
    25  H    8.158372   3.421692   2.148738   3.876854   1.092888
    26  H    8.557845   3.421719   3.877063   2.148654   3.414123
    27  H    5.622485   2.961687   2.718658   4.021164   3.647893
    28  H    3.019915   5.744298   6.155271   6.838784   7.470087
    29  H    5.523321   2.956638   4.004515   2.723549   4.674891
    30  H    2.942426   5.742857   6.835955   6.151961   8.034685
    31  N    9.615185   4.200417   3.674819   3.674876   2.413620
    32  H   10.200346   4.780481   4.478867   3.988676   3.317018
    33  H   10.070719   4.780229   3.988735   4.478367   2.614413
                   21         22         23         24         25
    21  H    0.000000
    22  C    3.876162   0.000000
    23  H    4.317079   2.138079   0.000000
    24  C    3.414223   1.413160   3.414239   0.000000
    25  H    2.457195   3.414019   4.968872   2.168440   0.000000
    26  H    4.968980   1.092867   2.457292   2.168495   4.320583
    27  H    2.459353   4.691379   4.634382   4.561729   4.063729
    28  H    5.645651   8.038413   6.892445   8.347692   7.978148
    29  H    4.611077   3.649043   2.473995   4.555248   5.625346
    30  H    6.888765   7.466018   5.640318   8.344766   8.896765
    31  N    4.549026   2.413421   4.548816   1.359107   2.657508
    32  H    5.423070   2.615707   4.690310   2.053495   3.650009
    33  H    4.688204   3.317758   5.424471   2.053368   2.426603
                   26         27         28         29         30
    26  H    0.000000
    27  H    5.646868   0.000000
    28  H    8.901320   4.340429   0.000000
    29  H    4.069583   5.752760   7.116445   0.000000
    30  H    7.972696   7.119668   5.539209   4.340687   0.000000
    31  N    2.656926   5.667400   9.632813   5.688156   9.644272
    32  H    2.431187   6.479414  10.342350   5.860758   9.965444
    33  H    3.652969   5.978369  10.032176   6.361630  10.277215
                   31         32         33
    31  N    0.000000
    32  H    1.012375   0.000000
    33  H    1.012346   1.720758   0.000000
 Stoichiometry    C15H12BF2N3
 Framework group  C1[X(C15H12BF2N3)]
 Deg. of freedom    93
 Full point group                 C1      NOp   1
 Largest Abelian subgroup         C1      NOp   1
 Largest concise Abelian subgroup C1      NOp   1
                         Standard orientation:                         
 ---------------------------------------------------------------------
 Center     Atomic      Atomic             Coordinates (Angstroms)
 Number     Number       Type             X           Y           Z
 ---------------------------------------------------------------------
      1          6           0        0.623950   -1.214325   -0.065594
      2          6           0        0.627556    1.216274    0.047662
      3          6           0       -0.091367    0.001912   -0.005223
      4          6           0        0.171021   -2.543476   -0.232271
      5          6           0        1.298817   -3.358185   -0.282863
      6          6           0        2.410823   -2.511880   -0.165166
      7          1           0        1.329485   -4.438921   -0.405755
      8          6           0        2.418946    2.509689    0.116571
      9          6           0        0.179491    2.549905    0.190383
     10          6           0        1.310047    3.361780    0.220743
     11          1           0        1.344385    4.444846    0.319867
     12          7           0        2.011169   -1.239445   -0.037899
     13          7           0        2.014983    1.236228    0.015783
     14          5           0        2.941108   -0.004036    0.022608
     15          9           0        3.704802   -0.024479    1.192598
     16          9           0        3.791607    0.013260   -1.084451
     17          6           0       -1.557145    0.002497   -0.000887
     18          6           0       -2.289738    0.851612   -0.853236
     19          6           0       -2.282393   -0.848666    0.855729
     20          6           0       -3.673572    0.846196   -0.859960
     21          1           0       -1.760286    1.498705   -1.555940
     22          6           0       -3.666101   -0.843150    0.874742
     23          1           0       -1.746618   -1.499864    1.549792
     24          6           0       -4.398716    0.003473    0.012462
     25          1           0       -4.217473    1.495186   -1.550892
     26          1           0       -4.203838   -1.494782    1.567976
     27          1           0       -0.857514    2.866863    0.277516
     28          1           0        3.478985    2.762656    0.125084
     29          1           0       -0.867447   -2.854294   -0.324569
     30          1           0        3.469973   -2.768143   -0.179898
     31          7           0       -5.757255    0.028398    0.042830
     32          1           0       -6.254933   -0.709333    0.525504
     33          1           0       -6.259937    0.500028   -0.698600
 ---------------------------------------------------------------------
 Rotational constants (GHZ):           0.5799246           0.2146276           0.1669170
 Standard basis: def2TZVP (5D, 7F)
 There are   828 symmetry adapted cartesian basis functions of A   symmetry.
 There are   723 symmetry adapted basis functions of A   symmetry.
   723 basis functions,  1167 primitive gaussians,   828 cartesian basis functions
    73 alpha electrons       73 beta electrons
       nuclear repulsion energy      1589.6986775573 Hartrees.
 NAtoms=   33 NActive=   33 NUniq=   33 SFac= 1.00D+00 NAtFMM=   60 NAOKFM=F Big=F
 Integral buffers will be    131072 words long.
 Raffenetti 1 integral format.
 Two-electron integral symmetry is turned on.
 Nuclear repulsion after empirical dispersion term =     1589.6733821276 Hartrees.
 ------------------------------------------------------------------------------
 Polarizable Continuum Model (PCM)
 =================================
 Model                : PCM.
 Atomic radii         : SMD-Coulomb.
 Polarization charges : Total charges.
 Charge compensation  : None.
 Solution method      : On-the-fly selection.
 Cavity type          : VdW (van der Waals Surface) (Alpha=1.000).
 Cavity algorithm     : GePol (No added spheres)
                        Default sphere list used, NSphG=   33.
                        Lebedev-Laikov grids with approx.  5.0 points / Ang**2.
                        Smoothing algorithm: York/Karplus (Gamma=1.0000).
                        Polarization charges: spherical gaussians, with
                                              point-specific exponents (IZeta= 3).
                        Self-potential: point-specific (ISelfS= 7).
                        Self-field    : sphere-specific E.n sum rule (ISelfD= 2).
 1st derivatives      : Analytical E(r).r(x)/FMM algorithm (CHGder, D1EAlg=3).
                        Cavity 1st derivative terms included.
 Solvent              : Ethanol, Eps=  24.852000 Eps(inf)=   1.852593
 ------------------------------------------------------------------------------
 ------------------------------------------------------------------------------
 Atomic radii for non-electrostatic terms: SMD-CDS.
 ------------------------------------------------------------------------------
 Nuclear repulsion after PCM non-electrostatic terms =     1589.6725754341 Hartrees.
 One-electron integrals computed using PRISM.
   1 Symmetry operations used in ECPInt.
 ECPInt:  NShTT=   39060 NPrTT=  121776 LenC2=   34375 LenP2D=   76749.
 LDataN:  DoStor=T MaxTD1= 6 Len=  172
 NBasis=   723 RedAO= T EigKep=  7.85D-06  NBF=   723
 NBsUse=   723 1.00D-06 EigRej= -1.00D+00 NBFU=   723
 Initial guess from the checkpoint file:  "03BDP-NH2_ethanol_wb97xd_wb97xd_wb97xd.chk"
 B after Tr=    -0.000000    0.000000   -0.000000
         Rot=    1.000000   -0.000000    0.000000   -0.000000 Ang=   0.00 deg.
 Requested convergence on RMS density matrix=1.00D-08 within 128 cycles.
 Requested convergence on MAX density matrix=1.00D-06.
 Requested convergence on             energy=1.00D-06.
 No special actions if energy rises.
 Inv3:  Mode=1 IEnd=    19722288.
 Iteration    1 A*A^-1 deviation from unit magnitude is 4.00D-15 for   2544.
 Iteration    1 A*A^-1 deviation from orthogonality  is 2.86D-15 for   2562    586.
 Iteration    1 A^-1*A deviation from unit magnitude is 3.77D-15 for   2544.
 Iteration    1 A^-1*A deviation from orthogonality  is 1.92D-15 for   2282    884.
 Error on total polarization charges =  0.04733
 SCF Done:  E(RwB97XD) =  -967.871438308     A.U. after    1 cycles
            NFock=  1  Conv=0.12D-08     -V/T= 2.0050
 SMD-CDS (non-electrostatic) energy       (kcal/mol) =      -0.51
 (included in total energy above)
 DoSCS=F DFT=T ScalE2(SS,OS)=  1.000000  1.000000
 ExpMin= 6.06D-02 ExpMax= 3.55D+04 ExpMxC= 1.21D+03 IAcc=3 IRadAn=         5 AccDes= 0.00D+00
 HarFok:  IExCor=  205 AccDes= 0.00D+00 IRadAn=         5 IDoV=-2 UseB2=F ITyADJ=14
 ICtDFT= 12500011 ScaDFX=  1.000000  1.000000  1.000000  1.000000
 GSVD:  LWork=        -609 too small for GESVD, short by        2520 words or        2520 for optimal perf.
 Range of M.O.s used for correlation:    22   723
 NBasis=   723 NAE=    73 NBE=    73 NFC=    21 NFV=     0
 NROrb=    702 NOA=    52 NOB=    52 NVA=   650 NVB=   650

 **** Warning!!: The largest alpha MO coefficient is  0.51659366D+02

 NEqPCM:  Using non-equilibrium solvation (IEInf=1, Eps=  24.8520, EpsInf=   1.8526)
 Inv3:  Mode=1 IEnd=    19722288.
 Iteration    1 A*A^-1 deviation from unit magnitude is 5.77D-15 for   2540.
 Iteration    1 A*A^-1 deviation from orthogonality  is 2.49D-15 for   2068   1377.
 Iteration    1 A^-1*A deviation from unit magnitude is 5.77D-15 for   2540.
 Iteration    1 A^-1*A deviation from orthogonality  is 1.45D-15 for   1014    227.
 Orbital symmetries:
       Occupied  (A) (A) (A) (A) (A) (A) (A) (A) (A) (A) (A) (A)
                 (A) (A) (A) (A) (A) (A) (A) (A) (A) (A) (A) (A)
                 (A) (A) (A) (A) (A) (A) (A) (A) (A) (A) (A) (A)
                 (A) (A) (A) (A) (A) (A) (A) (A) (A) (A) (A) (A)
                 (A) (A) (A) (A) (A) (A) (A) (A) (A) (A) (A) (A)
                 (A) (A) (A) (A) (A) (A) (A) (A) (A) (A) (A) (A)
                 (A)
       Virtual   (A) (A) (A) (A) (A) (A) (A) (A) (A) (A) (A) (A)
                 (A) (A) (A) (A) (A) (A) (A) (A) (A) (A) (A) (A)
                 (A) (A) (A) (A) (A) (A) (A) (A) (A) (A) (A) (A)
                 (A) (A) (A) (A) (A) (A) (A) (A) (A) (A) (A) (A)
                 (A) (A) (A) (A) (A) (A) (A) (A) (A) (A) (A) (A)
                 (A) (A) (A) (A) (A) (A) (A) (A) (A) (A) (A) (A)
                 (A) (A) (A) (A) (A) (A) (A) (A) (A) (A) (A) (A)
                 (A) (A) (A) (A) (A) (A) (A) (A) (A) (A) (A) (A)
                 (A) (A) (A) (A) (A) (A) (A) (A) (A) (A) (A) (A)
                 (A) (A) (A) (A) (A) (A) (A) (A) (A) (A) (A) (A)
                 (A) (A) (A) (A) (A) (A) (A) (A) (A) (A) (A) (A)
                 (A) (A) (A) (A) (A) (A) (A) (A) (A) (A) (A) (A)
                 (A) (A) (A) (A) (A) (A) (A) (A) (A) (A) (A) (A)
                 (A) (A) (A) (A) (A) (A) (A) (A) (A) (A) (A) (A)
                 (A) (A) (A) (A) (A) (A) (A) (A) (A) (A) (A) (A)
                 (A) (A) (A) (A) (A) (A) (A) (A) (A) (A) (A) (A)
                 (A) (A) (A) (A) (A) (A) (A) (A) (A) (A) (A) (A)
                 (A) (A) (A) (A) (A) (A) (A) (A) (A) (A) (A) (A)
                 (A) (A) (A) (A) (A) (A) (A) (A) (A) (A) (A) (A)
                 (A) (A) (A) (A) (A) (A) (A) (A) (A) (A) (A) (A)
                 (A) (A) (A) (A) (A) (A) (A) (A) (A) (A) (A) (A)
                 (A) (A) (A) (A) (A) (A) (A) (A) (A) (A) (A) (A)
                 (A) (A) (A) (A) (A) (A) (A) (A) (A) (A) (A) (A)
                 (A) (A) (A) (A) (A) (A) (A) (A) (A) (A) (A) (A)
                 (A) (A) (A) (A) (A) (A) (A) (A) (A) (A) (A) (A)
                 (A) (A) (A) (A) (A) (A) (A) (A) (A) (A) (A) (A)
                 (A) (A) (A) (A) (A) (A) (A) (A) (A) (A) (A) (A)
                 (A) (A) (A) (A) (A) (A) (A) (A) (A) (A) (A) (A)
                 (A) (A) (A) (A) (A) (A) (A) (A) (A) (A) (A) (A)
                 (A) (A) (A) (A) (A) (A) (A) (A) (A) (A) (A) (A)
                 (A) (A) (A) (A) (A) (A) (A) (A) (A) (A) (A) (A)
                 (A) (A) (A) (A) (A) (A) (A) (A) (A) (A) (A) (A)
                 (A) (A) (A) (A) (A) (A) (A) (A) (A) (A) (A) (A)
                 (A) (A) (A) (A) (A) (A) (A) (A) (A) (A) (A) (A)
                 (A) (A) (A) (A) (A) (A) (A) (A) (A) (A) (A) (A)
                 (A) (A) (A) (A) (A) (A) (A) (A) (A) (A) (A) (A)
                 (A) (A) (A) (A) (A) (A) (A) (A) (A) (A) (A) (A)
                 (A) (A) (A) (A) (A) (A) (A) (A) (A) (A) (A) (A)
                 (A) (A) (A) (A) (A) (A) (A) (A) (A) (A) (A) (A)
                 (A) (A) (A) (A) (A) (A) (A) (A) (A) (A) (A) (A)
                 (A) (A) (A) (A) (A) (A) (A) (A) (A) (A) (A) (A)
                 (A) (A) (A) (A) (A) (A) (A) (A) (A) (A) (A) (A)
                 (A) (A) (A) (A) (A) (A) (A) (A) (A) (A) (A) (A)
                 (A) (A) (A) (A) (A) (A) (A) (A) (A) (A) (A) (A)
                 (A) (A) (A) (A) (A) (A) (A) (A) (A) (A) (A) (A)
                 (A) (A) (A) (A) (A) (A) (A) (A) (A) (A) (A) (A)
                 (A) (A) (A) (A) (A) (A) (A) (A) (A) (A) (A) (A)
                 (A) (A) (A) (A) (A) (A) (A) (A) (A) (A) (A) (A)
                 (A) (A) (A) (A) (A) (A) (A) (A) (A) (A) (A) (A)
                 (A) (A) (A) (A) (A) (A) (A) (A) (A) (A) (A) (A)
                 (A) (A) (A) (A) (A) (A) (A) (A) (A) (A) (A) (A)
                 (A) (A) (A) (A) (A) (A) (A) (A) (A) (A) (A) (A)
                 (A) (A) (A) (A) (A) (A) (A) (A) (A) (A) (A) (A)
                 (A) (A) (A) (A) (A) (A) (A) (A) (A) (A) (A) (A)
                 (A) (A)
    12 initial guesses have been made.
 Convergence on wavefunction:    0.000001000000000
 Iteration     1 Dimension    12 NMult     0 NNew     12
 CISAX will form    12 AO SS matrices at one time.
 Iteration     2 Dimension    18 NMult    12 NNew      6
 Iteration     3 Dimension    24 NMult    18 NNew      6
 Iteration     4 Dimension    30 NMult    24 NNew      6
 Iteration     5 Dimension    36 NMult    30 NNew      6
 Iteration     6 Dimension    42 NMult    36 NNew      6
 Iteration     7 Dimension    48 NMult    42 NNew      6
 Iteration     8 Dimension    54 NMult    48 NNew      6
 Iteration     9 Dimension    60 NMult    54 NNew      6
 Iteration    10 Dimension    66 NMult    60 NNew      6
 Iteration    11 Dimension    70 NMult    66 NNew      4
 Iteration    12 Dimension    72 NMult    70 NNew      2
 PCM Corrected Linear-Response:
 The state of interest is root number   1
 Excitation energy =    3.1043 eV, Total energy =  -967.757357150    
 Recompute the excitation energies using the linear response reaction field.
 Convergence on wavefunction:    0.000001000000000
 Iteration     1 Dimension     3 NMult     0 NNew      3
 Iteration     2 Dimension     9 NMult     3 NNew      6
 New state      1 was old state      2
 New state      2 was old state      1
 Iteration     3 Dimension    15 NMult     9 NNew      6
 Iteration     4 Dimension    21 NMult    15 NNew      6
 Iteration     5 Dimension    27 NMult    21 NNew      6
 Iteration     6 Dimension    33 NMult    27 NNew      6
 Iteration     7 Dimension    39 NMult    33 NNew      6
 Iteration     8 Dimension    45 NMult    39 NNew      6
 Iteration     9 Dimension    51 NMult    45 NNew      6
 Iteration    10 Dimension    57 NMult    51 NNew      6
 Iteration    11 Dimension    63 NMult    57 NNew      6
 Iteration    12 Dimension    67 NMult    63 NNew      4
 Iteration    13 Dimension    69 NMult    67 NNew      2
 ***********************************************************************
 Excited states from <AA,BB:AA,BB> singles matrix:
 ***********************************************************************
 
 Ground to excited state transition densities written to RWF  633
 Ground to excited state transition electric dipole moments (Au):
       state          X           Y           Z        Dip. S.      Osc.
         1         0.0023      2.7131      0.2074      7.4041      0.5404
         2        -2.4166      0.0038      0.0193      5.8405      0.4321
         3         0.0042      0.7568      0.1013      0.5830      0.0574
 Ground to excited state transition velocity dipole moments (Au):
       state          X           Y           Z        Dip. S.      Osc.
         1        -0.0003     -0.2957     -0.0226      0.0879      0.5354
         2         0.2661     -0.0004     -0.0020      0.0708      0.4253
         3        -0.0006     -0.1121     -0.0151      0.0128      0.0577
 Ground to excited state transition magnetic dipole moments (Au):
       state          X           Y           Z
         1        -0.0032     -0.0443      0.5689
         2        -0.0474     -0.0099      0.0076
         3        -0.0013      0.1562     -1.2946
 Ground to excited state transition velocity quadrupole moments (Au):
       state          XX          YY          ZZ          XY          XZ          YZ
         1        -0.0055      0.0005      0.0020     -1.0133     -0.0385      0.0153
         2        -1.4759      0.6816     -0.0226      0.0134      0.0099      0.0905
         3         0.0026     -0.0043      0.0012      0.0316      0.0266      0.0034
 <0|del|b> * <b|rxdel|0> + <0|del|b> * <b|delr+rdel|0>
 Rotatory Strengths (R) in cgs (10**-40 erg-esu-cm/Gauss)
       state          XX          YY          ZZ    R(velocity)    E-M Angle
         1        37.9459   -115.4177     79.0610      0.5297       89.92
         2        -0.1102     36.5174   -116.9308    -26.8412      165.44
         3        11.0057     48.0586    -49.0597      3.3349       89.19
 1/2[<0|r|b>*<b|rxdel|0> + (<0|rxdel|b>*<b|r|0>)*]
 Rotatory Strengths (R) in cgs (10**-40 erg-esu-cm/Gauss)
       state          XX          YY          ZZ     R(length)
         1         0.0053     84.9733    -83.4210      0.5192
         2       -81.0854      0.0264     -0.1035    -27.0542
         3         0.0037    -83.6166     92.7169      3.0347
  1/2[<0|del|b>*<b|r|0> + (<0|r|b>*<b|del|0>)*] (Au)
       state          X           Y           Z        Dip. S.   Osc.(frdel)
         1        -0.0000     -0.8022     -0.0047      0.8069      0.5379
         2        -0.6430     -0.0000     -0.0000      0.6431      0.4287
         3        -0.0000     -0.0848     -0.0015      0.0863      0.0576

 Excitation energies and oscillator strengths:
 
 Excited State   1:      Singlet-A      2.9794 eV  416.14 nm  f=0.5404  <S**2>=0.000
      72 -> 74         0.69737
 This state for optimization and/or second-order correction.
 Total Energy, E(TD-HF/TD-DFT) =  -967.761948738    
 Copying the excited state density for this state as the 1-particle RhoCI density.
 
 Excited State   2:      Singlet-A      3.0197 eV  410.59 nm  f=0.4321  <S**2>=0.000
      73 -> 74         0.68894
 
 Excited State   3:      Singlet-A      4.0187 eV  308.52 nm  f=0.0574  <S**2>=0.000
      70 -> 74        -0.30189
      71 -> 74         0.62961
 SavETr:  write IOETrn=   770 NScale= 10 NData=  16 NLR=1 NState=    3 LETran=      64.
 NEqPCM:  Using equilibrium solvation (IEInf=0, Eps=  24.8520, EpsInf=   1.8526)
          Differentiating once with respect to electric field.
                with respect to dipole field.
          Electric field/nuclear overlap derivatives assumed to be zero.
          There are     1 degrees of freedom in the 1st order CPHF.  IDoFFX=0 NUNeed=     1.
 LinEq1:  Iter=  0 NonCon=     1 RMS=2.21D-03 Max=2.56D-01 NDo=     1
 AX will form     1 AO Fock derivatives at one time.
 LinEq1:  Iter=  1 NonCon=     1 RMS=8.31D-04 Max=1.01D-01 NDo=     1
 LinEq1:  Iter=  2 NonCon=     1 RMS=4.07D-04 Max=3.33D-02 NDo=     1
 LinEq1:  Iter=  3 NonCon=     1 RMS=1.20D-04 Max=8.29D-03 NDo=     1
 LinEq1:  Iter=  4 NonCon=     1 RMS=5.99D-05 Max=4.48D-03 NDo=     1
 LinEq1:  Iter=  5 NonCon=     1 RMS=2.43D-05 Max=2.62D-03 NDo=     1
 LinEq1:  Iter=  6 NonCon=     1 RMS=1.35D-05 Max=1.07D-03 NDo=     1
 LinEq1:  Iter=  7 NonCon=     1 RMS=6.69D-06 Max=3.08D-04 NDo=     1
 LinEq1:  Iter=  8 NonCon=     1 RMS=3.19D-06 Max=1.86D-04 NDo=     1
 LinEq1:  Iter=  9 NonCon=     1 RMS=1.45D-06 Max=4.97D-05 NDo=     1
 LinEq1:  Iter= 10 NonCon=     1 RMS=4.55D-07 Max=3.88D-05 NDo=     1
 LinEq1:  Iter= 11 NonCon=     1 RMS=2.17D-07 Max=1.03D-05 NDo=     1
 LinEq1:  Iter= 12 NonCon=     1 RMS=7.65D-08 Max=3.75D-06 NDo=     1
 LinEq1:  Iter= 13 NonCon=     1 RMS=2.64D-08 Max=2.24D-06 NDo=     1
 LinEq1:  Iter= 14 NonCon=     1 RMS=1.24D-08 Max=4.18D-07 NDo=     1
 LinEq1:  Iter= 15 NonCon=     1 RMS=4.42D-09 Max=3.40D-07 NDo=     1
 LinEq1:  Iter= 16 NonCon=     1 RMS=1.66D-09 Max=1.04D-07 NDo=     1
 LinEq1:  Iter= 17 NonCon=     1 RMS=8.85D-10 Max=8.76D-08 NDo=     1
 LinEq1:  Iter= 18 NonCon=     1 RMS=3.94D-10 Max=4.62D-08 NDo=     1
 LinEq1:  Iter= 19 NonCon=     1 RMS=2.16D-10 Max=1.81D-08 NDo=     1
 LinEq1:  Iter= 20 NonCon=     1 RMS=9.48D-11 Max=5.34D-09 NDo=     1
 LinEq1:  Iter= 21 NonCon=     1 RMS=3.30D-11 Max=1.58D-09 NDo=     1
 LinEq1:  Iter= 22 NonCon=     1 RMS=1.95D-11 Max=1.17D-09 NDo=     1
 LinEq1:  Iter= 23 NonCon=     0 RMS=7.25D-12 Max=2.77D-10 NDo=     1
 Linear equations converged to 1.000D-10 1.000D-09 after    23 iterations.
 PCM Corrected Linear-Response - Non-equilibrium solvation:
 Corrected transition energy               =    3.0927          eV
 Total energy after correction             = -967.757782718     a.u.
 End of Minotr F.D. properties file   721 does not exist.
 End of Minotr F.D. properties file   722 does not exist.
 End of Minotr F.D. properties file   788 does not exist.

 **********************************************************************

            Population analysis using the CI Density.

 **********************************************************************

 Orbital symmetries:
       Occupied  (A) (A) (A) (A) (A) (A) (A) (A) (A) (A) (A) (A)
                 (A) (A) (A) (A) (A) (A) (A) (A) (A) (A) (A) (A)
                 (A) (A) (A) (A) (A) (A) (A) (A) (A) (A) (A) (A)
                 (A) (A) (A) (A) (A) (A) (A) (A) (A) (A) (A) (A)
                 (A) (A) (A) (A) (A) (A) (A) (A) (A) (A) (A) (A)
                 (A) (A) (A) (A) (A) (A) (A) (A) (A) (A) (A) (A)
                 (A)
       Virtual   (A) (A) (A) (A) (A) (A) (A) (A) (A) (A) (A) (A)
                 (A) (A) (A) (A) (A) (A) (A) (A) (A) (A) (A) (A)
                 (A) (A) (A) (A) (A) (A) (A) (A) (A) (A) (A) (A)
                 (A) (A) (A) (A) (A) (A) (A) (A) (A) (A) (A) (A)
                 (A) (A) (A) (A) (A) (A) (A) (A) (A) (A) (A) (A)
                 (A) (A) (A) (A) (A) (A) (A) (A) (A) (A) (A) (A)
                 (A) (A) (A) (A) (A) (A) (A) (A) (A) (A) (A) (A)
                 (A) (A) (A) (A) (A) (A) (A) (A) (A) (A) (A) (A)
                 (A) (A) (A) (A) (A) (A) (A) (A) (A) (A) (A) (A)
                 (A) (A) (A) (A) (A) (A) (A) (A) (A) (A) (A) (A)
                 (A) (A) (A) (A) (A) (A) (A) (A) (A) (A) (A) (A)
                 (A) (A) (A) (A) (A) (A) (A) (A) (A) (A) (A) (A)
                 (A) (A) (A) (A) (A) (A) (A) (A) (A) (A) (A) (A)
                 (A) (A) (A) (A) (A) (A) (A) (A) (A) (A) (A) (A)
                 (A) (A) (A) (A) (A) (A) (A) (A) (A) (A) (A) (A)
                 (A) (A) (A) (A) (A) (A) (A) (A) (A) (A) (A) (A)
                 (A) (A) (A) (A) (A) (A) (A) (A) (A) (A) (A) (A)
                 (A) (A) (A) (A) (A) (A) (A) (A) (A) (A) (A) (A)
                 (A) (A) (A) (A) (A) (A) (A) (A) (A) (A) (A) (A)
                 (A) (A) (A) (A) (A) (A) (A) (A) (A) (A) (A) (A)
                 (A) (A) (A) (A) (A) (A) (A) (A) (A) (A) (A) (A)
                 (A) (A) (A) (A) (A) (A) (A) (A) (A) (A) (A) (A)
                 (A) (A) (A) (A) (A) (A) (A) (A) (A) (A) (A) (A)
                 (A) (A) (A) (A) (A) (A) (A) (A) (A) (A) (A) (A)
                 (A) (A) (A) (A) (A) (A) (A) (A) (A) (A) (A) (A)
                 (A) (A) (A) (A) (A) (A) (A) (A) (A) (A) (A) (A)
                 (A) (A) (A) (A) (A) (A) (A) (A) (A) (A) (A) (A)
                 (A) (A) (A) (A) (A) (A) (A) (A) (A) (A) (A) (A)
                 (A) (A) (A) (A) (A) (A) (A) (A) (A) (A) (A) (A)
                 (A) (A) (A) (A) (A) (A) (A) (A) (A) (A) (A) (A)
                 (A) (A) (A) (A) (A) (A) (A) (A) (A) (A) (A) (A)
                 (A) (A) (A) (A) (A) (A) (A) (A) (A) (A) (A) (A)
                 (A) (A) (A) (A) (A) (A) (A) (A) (A) (A) (A) (A)
                 (A) (A) (A) (A) (A) (A) (A) (A) (A) (A) (A) (A)
                 (A) (A) (A) (A) (A) (A) (A) (A) (A) (A) (A) (A)
                 (A) (A) (A) (A) (A) (A) (A) (A) (A) (A) (A) (A)
                 (A) (A) (A) (A) (A) (A) (A) (A) (A) (A) (A) (A)
                 (A) (A) (A) (A) (A) (A) (A) (A) (A) (A) (A) (A)
                 (A) (A) (A) (A) (A) (A) (A) (A) (A) (A) (A) (A)
                 (A) (A) (A) (A) (A) (A) (A) (A) (A) (A) (A) (A)
                 (A) (A) (A) (A) (A) (A) (A) (A) (A) (A) (A) (A)
                 (A) (A) (A) (A) (A) (A) (A) (A) (A) (A) (A) (A)
                 (A) (A) (A) (A) (A) (A) (A) (A) (A) (A) (A) (A)
                 (A) (A) (A) (A) (A) (A) (A) (A) (A) (A) (A) (A)
                 (A) (A) (A) (A) (A) (A) (A) (A) (A) (A) (A) (A)
                 (A) (A) (A) (A) (A) (A) (A) (A) (A) (A) (A) (A)
                 (A) (A) (A) (A) (A) (A) (A) (A) (A) (A) (A) (A)
                 (A) (A) (A) (A) (A) (A) (A) (A) (A) (A) (A) (A)
                 (A) (A) (A) (A) (A) (A) (A) (A) (A) (A) (A) (A)
                 (A) (A) (A) (A) (A) (A) (A) (A) (A) (A) (A) (A)
                 (A) (A) (A) (A) (A) (A) (A) (A) (A) (A) (A) (A)
                 (A) (A) (A) (A) (A) (A) (A) (A) (A) (A) (A) (A)
                 (A) (A) (A) (A) (A) (A) (A) (A) (A) (A) (A) (A)
                 (A) (A) (A) (A) (A) (A) (A) (A) (A) (A) (A) (A)
                 (A) (A)
 The electronic state is 1-A.
 Alpha  occ. eigenvalues --  -24.76561 -24.76502 -14.47003 -14.46995 -14.44080
 Alpha  occ. eigenvalues --  -10.35493 -10.34302 -10.32927 -10.32923 -10.32668
 Alpha  occ. eigenvalues --  -10.32661 -10.30226 -10.30008 -10.30000 -10.29878
 Alpha  occ. eigenvalues --  -10.29872 -10.28631 -10.28627 -10.28483 -10.28479
 Alpha  occ. eigenvalues --   -6.92854  -1.28094  -1.24842  -1.09914  -1.08068
 Alpha  occ. eigenvalues --   -1.02961  -0.96494  -0.91523  -0.89265  -0.87864
 Alpha  occ. eigenvalues --   -0.85277  -0.83127  -0.82639  -0.76203  -0.71655
 Alpha  occ. eigenvalues --   -0.70425  -0.70283  -0.67369  -0.67131  -0.66823
 Alpha  occ. eigenvalues --   -0.63214  -0.62046  -0.60458  -0.60431  -0.59730
 Alpha  occ. eigenvalues --   -0.58231  -0.55630  -0.53930  -0.53215  -0.53080
 Alpha  occ. eigenvalues --   -0.52612  -0.52262  -0.51499  -0.51194  -0.50540
 Alpha  occ. eigenvalues --   -0.49702  -0.48902  -0.48332  -0.47482  -0.47370
 Alpha  occ. eigenvalues --   -0.46787  -0.46654  -0.46057  -0.44974  -0.43443
 Alpha  occ. eigenvalues --   -0.42632  -0.41598  -0.37407  -0.34814  -0.34264
 Alpha  occ. eigenvalues --   -0.33799  -0.28826  -0.27992
 Alpha virt. eigenvalues --   -0.04974   0.05129   0.06448   0.09252   0.10793
 Alpha virt. eigenvalues --    0.12524   0.12959   0.13169   0.14577   0.14960
 Alpha virt. eigenvalues --    0.15371   0.15878   0.16501   0.16756   0.17498
 Alpha virt. eigenvalues --    0.17709   0.18110   0.18542   0.19327   0.20721
 Alpha virt. eigenvalues --    0.20975   0.21106   0.22298   0.23187   0.24012
 Alpha virt. eigenvalues --    0.24111   0.24558   0.25322   0.26112   0.27037
 Alpha virt. eigenvalues --    0.27454   0.27561   0.27672   0.28952   0.29016
 Alpha virt. eigenvalues --    0.29887   0.30542   0.30725   0.30929   0.31977
 Alpha virt. eigenvalues --    0.32283   0.33613   0.34324   0.34586   0.34693
 Alpha virt. eigenvalues --    0.35369   0.36552   0.36740   0.37395   0.37777
 Alpha virt. eigenvalues --    0.38091   0.38383   0.38782   0.39246   0.39907
 Alpha virt. eigenvalues --    0.40073   0.40294   0.41045   0.41702   0.42318
 Alpha virt. eigenvalues --    0.42899   0.43091   0.43443   0.43745   0.44598
 Alpha virt. eigenvalues --    0.45064   0.45435   0.46038   0.46283   0.46688
 Alpha virt. eigenvalues --    0.46740   0.48312   0.48503   0.49002   0.49166
 Alpha virt. eigenvalues --    0.49892   0.49968   0.50627   0.51194   0.51869
 Alpha virt. eigenvalues --    0.52308   0.52744   0.53152   0.53665   0.53994
 Alpha virt. eigenvalues --    0.54163   0.55113   0.55537   0.56090   0.56166
 Alpha virt. eigenvalues --    0.56490   0.58248   0.58470   0.59369   0.59747
 Alpha virt. eigenvalues --    0.59993   0.60476   0.61619   0.62150   0.62411
 Alpha virt. eigenvalues --    0.63588   0.63775   0.64541   0.66144   0.67300
 Alpha virt. eigenvalues --    0.67465   0.68097   0.68456   0.69190   0.69610
 Alpha virt. eigenvalues --    0.70219   0.70955   0.71386   0.71542   0.73325
 Alpha virt. eigenvalues --    0.73577   0.73865   0.74480   0.75044   0.75192
 Alpha virt. eigenvalues --    0.77253   0.77476   0.77849   0.78620   0.78953
 Alpha virt. eigenvalues --    0.79570   0.79664   0.80035   0.80846   0.81242
 Alpha virt. eigenvalues --    0.82158   0.82352   0.82933   0.83065   0.84764
 Alpha virt. eigenvalues --    0.85113   0.85445   0.85724   0.87165   0.87916
 Alpha virt. eigenvalues --    0.88842   0.90000   0.90887   0.91387   0.91575
 Alpha virt. eigenvalues --    0.92633   0.93118   0.93702   0.94476   0.95210
 Alpha virt. eigenvalues --    0.95763   0.96448   0.97052   0.99570   1.01430
 Alpha virt. eigenvalues --    1.01659   1.02916   1.03423   1.04236   1.04552
 Alpha virt. eigenvalues --    1.04903   1.05233   1.06736   1.06982   1.07161
 Alpha virt. eigenvalues --    1.07536   1.09023   1.10938   1.11685   1.12298
 Alpha virt. eigenvalues --    1.13891   1.14000   1.15370   1.16091   1.16714
 Alpha virt. eigenvalues --    1.18133   1.18855   1.19685   1.20957   1.21706
 Alpha virt. eigenvalues --    1.22152   1.22843   1.23497   1.24763   1.25855
 Alpha virt. eigenvalues --    1.26797   1.27894   1.28738   1.29314   1.30129
 Alpha virt. eigenvalues --    1.30506   1.31655   1.32097   1.34799   1.34928
 Alpha virt. eigenvalues --    1.35184   1.36012   1.36556   1.37671   1.37942
 Alpha virt. eigenvalues --    1.38736   1.40665   1.41419   1.42214   1.43665
 Alpha virt. eigenvalues --    1.45048   1.45860   1.46536   1.46963   1.48165
 Alpha virt. eigenvalues --    1.48330   1.48740   1.48992   1.49980   1.52839
 Alpha virt. eigenvalues --    1.53299   1.54448   1.55447   1.56545   1.56848
 Alpha virt. eigenvalues --    1.57378   1.57734   1.57869   1.58740   1.59992
 Alpha virt. eigenvalues --    1.60448   1.61979   1.62021   1.63580   1.63868
 Alpha virt. eigenvalues --    1.64475   1.65095   1.65764   1.68258   1.68415
 Alpha virt. eigenvalues --    1.69337   1.69770   1.69842   1.70200   1.71697
 Alpha virt. eigenvalues --    1.72402   1.73196   1.73619   1.74070   1.74809
 Alpha virt. eigenvalues --    1.76244   1.77754   1.78256   1.78874   1.79717
 Alpha virt. eigenvalues --    1.80308   1.81149   1.83388   1.83654   1.84368
 Alpha virt. eigenvalues --    1.85352   1.86313   1.86579   1.88347   1.88406
 Alpha virt. eigenvalues --    1.89606   1.90252   1.90513   1.91864   1.92274
 Alpha virt. eigenvalues --    1.93768   1.94600   1.96163   1.96749   1.99049
 Alpha virt. eigenvalues --    1.99858   2.00622   2.01188   2.01556   2.02258
 Alpha virt. eigenvalues --    2.03987   2.04690   2.06253   2.08150   2.09116
 Alpha virt. eigenvalues --    2.10411   2.10849   2.11288   2.14690   2.15943
 Alpha virt. eigenvalues --    2.16453   2.17140   2.17828   2.18740   2.19696
 Alpha virt. eigenvalues --    2.21097   2.21573   2.21914   2.22195   2.24902
 Alpha virt. eigenvalues --    2.25328   2.25991   2.27692   2.28360   2.29263
 Alpha virt. eigenvalues --    2.29844   2.30778   2.31384   2.32164   2.33358
 Alpha virt. eigenvalues --    2.33554   2.35670   2.36171   2.36775   2.37434
 Alpha virt. eigenvalues --    2.38070   2.39027   2.41567   2.42110   2.44415
 Alpha virt. eigenvalues --    2.45466   2.45833   2.46834   2.47058   2.48405
 Alpha virt. eigenvalues --    2.49944   2.50507   2.53815   2.56189   2.57546
 Alpha virt. eigenvalues --    2.58115   2.58961   2.60124   2.60950   2.61266
 Alpha virt. eigenvalues --    2.61519   2.63273   2.64654   2.65020   2.66496
 Alpha virt. eigenvalues --    2.67100   2.67304   2.68157   2.68767   2.70199
 Alpha virt. eigenvalues --    2.70570   2.71165   2.71562   2.72956   2.73224
 Alpha virt. eigenvalues --    2.73651   2.75180   2.75680   2.76905   2.77396
 Alpha virt. eigenvalues --    2.77663   2.78059   2.78300   2.79720   2.79941
 Alpha virt. eigenvalues --    2.80770   2.82383   2.83126   2.83493   2.84201
 Alpha virt. eigenvalues --    2.85506   2.85542   2.86719   2.86890   2.87641
 Alpha virt. eigenvalues --    2.88712   2.89130   2.89899   2.91272   2.91290
 Alpha virt. eigenvalues --    2.93330   2.93602   2.94092   2.94569   2.95289
 Alpha virt. eigenvalues --    2.97067   2.97601   2.98685   2.99328   2.99592
 Alpha virt. eigenvalues --    3.00455   3.00507   3.02360   3.03097   3.04036
 Alpha virt. eigenvalues --    3.04319   3.05770   3.07202   3.07436   3.07727
 Alpha virt. eigenvalues --    3.08548   3.09520   3.09673   3.10656   3.10921
 Alpha virt. eigenvalues --    3.13299   3.13732   3.14275   3.15643   3.16638
 Alpha virt. eigenvalues --    3.17249   3.17900   3.18349   3.18666   3.18941
 Alpha virt. eigenvalues --    3.19929   3.20436   3.21058   3.21705   3.22389
 Alpha virt. eigenvalues --    3.22930   3.23872   3.24209   3.24856   3.27149
 Alpha virt. eigenvalues --    3.27902   3.28305   3.28787   3.29242   3.30297
 Alpha virt. eigenvalues --    3.30905   3.31427   3.31792   3.32415   3.34461
 Alpha virt. eigenvalues --    3.35142   3.35500   3.36401   3.37558   3.37709
 Alpha virt. eigenvalues --    3.38731   3.40128   3.40509   3.40643   3.41109
 Alpha virt. eigenvalues --    3.41960   3.42922   3.43949   3.44749   3.45442
 Alpha virt. eigenvalues --    3.47149   3.47445   3.47991   3.48761   3.49792
 Alpha virt. eigenvalues --    3.51324   3.51763   3.52033   3.53351   3.54174
 Alpha virt. eigenvalues --    3.54898   3.55600   3.55785   3.56103   3.58175
 Alpha virt. eigenvalues --    3.58445   3.59078   3.60124   3.61051   3.61265
 Alpha virt. eigenvalues --    3.61792   3.63386   3.63560   3.64123   3.65023
 Alpha virt. eigenvalues --    3.65779   3.66732   3.68843   3.69150   3.70099
 Alpha virt. eigenvalues --    3.71814   3.72475   3.72667   3.75195   3.77288
 Alpha virt. eigenvalues --    3.78614   3.79518   3.79900   3.81875   3.82568
 Alpha virt. eigenvalues --    3.83476   3.86448   3.89248   3.89761   3.89870
 Alpha virt. eigenvalues --    3.90597   3.90758   3.92734   3.93663   3.96145
 Alpha virt. eigenvalues --    3.97129   4.01332   4.02831   4.04337   4.05813
 Alpha virt. eigenvalues --    4.06673   4.08568   4.10241   4.12310   4.12400
 Alpha virt. eigenvalues --    4.13309   4.13982   4.15089   4.16127   4.16890
 Alpha virt. eigenvalues --    4.18316   4.19473   4.20970   4.22398   4.23589
 Alpha virt. eigenvalues --    4.24413   4.24835   4.26161   4.28186   4.30504
 Alpha virt. eigenvalues --    4.30687   4.31370   4.33005   4.33433   4.34303
 Alpha virt. eigenvalues --    4.35389   4.36516   4.37037   4.38122   4.39440
 Alpha virt. eigenvalues --    4.40296   4.40572   4.41616   4.43210   4.44406
 Alpha virt. eigenvalues --    4.48286   4.49145   4.49620   4.51288   4.55894
 Alpha virt. eigenvalues --    4.60829   4.61377   4.63052   4.63995   4.65237
 Alpha virt. eigenvalues --    4.68031   4.70514   4.71395   4.75489   4.76262
 Alpha virt. eigenvalues --    4.77157   4.80993   4.84387   4.84719   4.85038
 Alpha virt. eigenvalues --    4.85896   4.89333   4.90324   4.90602   4.91187
 Alpha virt. eigenvalues --    4.91946   4.92681   4.95631   4.97735   4.98669
 Alpha virt. eigenvalues --    4.99408   5.00698   5.03266   5.05396   5.07147
 Alpha virt. eigenvalues --    5.10244   5.10993   5.13210   5.15088   5.15805
 Alpha virt. eigenvalues --    5.20177   5.21652   5.24493   5.25290   5.26447
 Alpha virt. eigenvalues --    5.27855   5.29408   5.35188   5.36120   5.38387
 Alpha virt. eigenvalues --    5.39610   5.42482   5.43239   5.44969   5.47226
 Alpha virt. eigenvalues --    5.48119   5.52014   5.54102   5.58597   5.59783
 Alpha virt. eigenvalues --    5.61701   5.63685   5.70995   5.71485   5.72912
 Alpha virt. eigenvalues --    5.89316   5.91467   5.94686   5.98062   6.01213
 Alpha virt. eigenvalues --    6.05712   6.06647   6.08473   6.12825   6.33194
 Alpha virt. eigenvalues --    6.98445   6.98594   7.01244   7.01421   7.04690
 Alpha virt. eigenvalues --    7.04919   7.10896   7.18048   7.23031   7.28566
 Alpha virt. eigenvalues --    7.30972   7.33152   7.42076   7.42767   8.50234
 Alpha virt. eigenvalues --    8.52625   8.62983   8.64929   8.90791   8.94131
 Alpha virt. eigenvalues --    8.97190   8.99419   9.00589   9.08877  15.92077
 Alpha virt. eigenvalues --   22.40161  22.50158  22.52637  22.75523  22.77650
 Alpha virt. eigenvalues --   22.79457  22.84686  22.87538  22.88454  22.90021
 Alpha virt. eigenvalues --   23.03201  23.14782  23.30493  23.39026  23.66672
 Alpha virt. eigenvalues --   32.18088  33.02571  33.06389  57.14479  57.38450
          Condensed to atoms (all electrons):
               1          2          3          4          5          6
     1  C    5.571626  -0.010404   0.092494   0.381368  -0.025198  -0.184056
     2  C   -0.010404   5.570394   0.078418   0.025349  -0.000311  -0.002566
     3  C    0.092494   0.078418   5.937483  -0.130468   0.014935  -0.002487
     4  C    0.381368   0.025349  -0.130468   5.287619   0.433159  -0.006166
     5  C   -0.025198  -0.000311   0.014935   0.433159   5.012960   0.445911
     6  C   -0.184056  -0.002566  -0.002487  -0.006166   0.445911   5.080762
     7  H    0.008869   0.000004  -0.000385  -0.042360   0.439730  -0.040385
     8  C   -0.003295  -0.184581  -0.000151  -0.000164   0.000109  -0.000120
     9  C    0.025566   0.379139  -0.124155  -0.000126   0.000015  -0.000124
    10  C    0.000151  -0.027757   0.011697   0.000038  -0.000007   0.000106
    11  H    0.000006   0.008876  -0.000406  -0.000000   0.000000  -0.000000
    12  N    0.376170  -0.007607  -0.033550  -0.093243  -0.081125   0.422975
    13  N   -0.008145   0.373494  -0.032044   0.000574  -0.000509  -0.000324
    14  B   -0.077278  -0.077245  -0.000504   0.007819  -0.009084  -0.022450
    15  F   -0.007663  -0.008028   0.004021   0.000535  -0.000269  -0.002216
    16  F   -0.008391  -0.008433   0.003871   0.000188  -0.000405  -0.001650
    17  C   -0.275449  -0.268387   0.350887  -0.042297   0.001521  -0.003291
    18  C    0.020283   0.007749  -0.133169   0.002487  -0.000230   0.000117
    19  C    0.004210   0.024822  -0.133916   0.007101   0.000704   0.000062
    20  C   -0.003125  -0.001217   0.000340  -0.000161  -0.000017   0.000001
    21  H    0.000915   0.001380   0.000253   0.000176  -0.000005  -0.000003
    22  C    0.000692  -0.004908   0.000535   0.000311  -0.000007  -0.000005
    23  H    0.001472   0.000971  -0.000312  -0.001659   0.000189  -0.000028
    24  C    0.000708   0.002628  -0.005423  -0.000176  -0.000006   0.000002
    25  H    0.000032   0.000032  -0.000195   0.000002  -0.000000   0.000000
    26  H    0.000120  -0.000006  -0.000250  -0.000011  -0.000009   0.000001
    27  H   -0.001120  -0.041360  -0.007759  -0.000033   0.000003  -0.000004
    28  H    0.000140   0.002568  -0.001267  -0.000005   0.000002  -0.000009
    29  H   -0.041810  -0.001051  -0.008155   0.436526  -0.029293   0.006639
    30  H    0.002609   0.000129  -0.001250   0.009022  -0.033699   0.420842
    31  N   -0.000028   0.000011   0.000021   0.000017   0.000000  -0.000000
    32  H   -0.000001   0.000002   0.000002   0.000001  -0.000000  -0.000000
    33  H   -0.000000   0.000002  -0.000001   0.000000   0.000000  -0.000000
               7          8          9         10         11         12
     1  C    0.008869  -0.003295   0.025566   0.000151   0.000006   0.376170
     2  C    0.000004  -0.184581   0.379139  -0.027757   0.008876  -0.007607
     3  C   -0.000385  -0.000151  -0.124155   0.011697  -0.000406  -0.033550
     4  C   -0.042360  -0.000164  -0.000126   0.000038  -0.000000  -0.093243
     5  C    0.439730   0.000109   0.000015  -0.000007   0.000000  -0.081125
     6  C   -0.040385  -0.000120  -0.000124   0.000106  -0.000000   0.422975
     7  H    0.449901  -0.000000  -0.000000   0.000000  -0.000000   0.003736
     8  C   -0.000000   5.080029  -0.007577   0.446593  -0.040411  -0.000148
     9  C   -0.000000  -0.007577   5.287281   0.438640  -0.042341   0.000749
    10  C    0.000000   0.446593   0.438640   5.009047   0.439599  -0.000583
    11  H   -0.000000  -0.040411  -0.042341   0.439599   0.449969   0.000006
    12  N    0.003736  -0.000148   0.000749  -0.000583   0.000006   6.234496
    13  N    0.000006   0.423123  -0.092599  -0.080792   0.003727  -0.028172
    14  B   -0.000029  -0.021730   0.007502  -0.009097  -0.000030   0.337173
    15  F    0.000003  -0.002710   0.000224  -0.000704   0.000003  -0.042255
    16  F    0.000002  -0.001200   0.000443  -0.000008   0.000002  -0.041308
    17  C    0.000006  -0.002777  -0.041338   0.000813   0.000001   0.011114
    18  C    0.000002   0.000050   0.006709   0.000617   0.000004  -0.000347
    19  C    0.000004   0.000136   0.001873  -0.000243   0.000002  -0.000186
    20  C   -0.000000  -0.000019   0.000520   0.000043   0.000001   0.000016
    21  H    0.000000  -0.000006  -0.001595   0.000138   0.000006  -0.000018
    22  C    0.000001  -0.000004   0.000069  -0.000002  -0.000000  -0.000022
    23  H    0.000007  -0.000003   0.000149  -0.000005   0.000000  -0.000122
    24  C    0.000000   0.000008  -0.000572  -0.000029   0.000000  -0.000001
    25  H   -0.000000   0.000000   0.000025  -0.000005  -0.000000  -0.000000
    26  H   -0.000000  -0.000000   0.000007   0.000000  -0.000000   0.000001
    27  H   -0.000000   0.006475   0.435194  -0.028621  -0.002472   0.000032
    28  H   -0.000000   0.420907   0.009068  -0.033703  -0.001659   0.000046
    29  H   -0.002495  -0.000003  -0.000025   0.000002  -0.000000   0.003559
    30  H   -0.001660  -0.000011  -0.000005   0.000002  -0.000000  -0.026992
    31  N    0.000000  -0.000000   0.000006   0.000000   0.000000  -0.000000
    32  H    0.000000   0.000000  -0.000000  -0.000000   0.000000  -0.000000
    33  H    0.000000   0.000000  -0.000001  -0.000000  -0.000000  -0.000000
              13         14         15         16         17         18
     1  C   -0.008145  -0.077278  -0.007663  -0.008391  -0.275449   0.020283
     2  C    0.373494  -0.077245  -0.008028  -0.008433  -0.268387   0.007749
     3  C   -0.032044  -0.000504   0.004021   0.003871   0.350887  -0.133169
     4  C    0.000574   0.007819   0.000535   0.000188  -0.042297   0.002487
     5  C   -0.000509  -0.009084  -0.000269  -0.000405   0.001521  -0.000230
     6  C   -0.000324  -0.022450  -0.002216  -0.001650  -0.003291   0.000117
     7  H    0.000006  -0.000029   0.000003   0.000002   0.000006   0.000002
     8  C    0.423123  -0.021730  -0.002710  -0.001200  -0.002777   0.000050
     9  C   -0.092599   0.007502   0.000224   0.000443  -0.041338   0.006709
    10  C   -0.080792  -0.009097  -0.000704  -0.000008   0.000813   0.000617
    11  H    0.003727  -0.000030   0.000003   0.000002   0.000001   0.000004
    12  N   -0.028172   0.337173  -0.042255  -0.041308   0.011114  -0.000347
    13  N    6.237401   0.338374  -0.042616  -0.040353   0.011260  -0.000123
    14  B    0.338374   3.407676   0.376660   0.374039   0.012993  -0.000067
    15  F   -0.042616   0.376660   9.122512  -0.032040   0.000192  -0.000003
    16  F   -0.040353   0.374039  -0.032040   9.120087   0.000136   0.000003
    17  C    0.011260   0.012993   0.000192   0.000136   5.634741   0.369155
    18  C   -0.000123  -0.000067  -0.000003   0.000003   0.369155   5.230648
    19  C   -0.000406  -0.000209   0.000003  -0.000004   0.367495  -0.005097
    20  C   -0.000019   0.000016   0.000000   0.000000  -0.008269   0.424685
    21  H   -0.000138  -0.000022  -0.000000  -0.000000  -0.067208   0.454027
    22  C    0.000016   0.000017   0.000000   0.000000  -0.007729  -0.047878
    23  H   -0.000017  -0.000024  -0.000000  -0.000000  -0.067542   0.009241
    24  C   -0.000001  -0.000000   0.000000  -0.000000  -0.078219   0.022592
    25  H    0.000001   0.000001   0.000000   0.000000   0.010227  -0.038035
    26  H   -0.000000   0.000001   0.000000   0.000000   0.010494  -0.002935
    27  H    0.003537   0.000594   0.000007   0.000005   0.003204  -0.006190
    28  H   -0.027044  -0.000979   0.000239   0.000309  -0.000026   0.000001
    29  H    0.000032   0.000583   0.000005   0.000007   0.003125  -0.000020
    30  H    0.000058  -0.001105  -0.000263   0.000970  -0.000025   0.000000
    31  N    0.000000   0.000000   0.000000   0.000000   0.003636  -0.002428
    32  H   -0.000000   0.000000   0.000000  -0.000000   0.000026  -0.000797
    33  H    0.000000   0.000000   0.000000   0.000000  -0.000015   0.001214
              19         20         21         22         23         24
     1  C    0.004210  -0.003125   0.000915   0.000692   0.001472   0.000708
     2  C    0.024822  -0.001217   0.001380  -0.004908   0.000971   0.002628
     3  C   -0.133916   0.000340   0.000253   0.000535  -0.000312  -0.005423
     4  C    0.007101  -0.000161   0.000176   0.000311  -0.001659  -0.000176
     5  C    0.000704  -0.000017  -0.000005  -0.000007   0.000189  -0.000006
     6  C    0.000062   0.000001  -0.000003  -0.000005  -0.000028   0.000002
     7  H    0.000004  -0.000000   0.000000   0.000001   0.000007   0.000000
     8  C    0.000136  -0.000019  -0.000006  -0.000004  -0.000003   0.000008
     9  C    0.001873   0.000520  -0.001595   0.000069   0.000149  -0.000572
    10  C   -0.000243   0.000043   0.000138  -0.000002  -0.000005  -0.000029
    11  H    0.000002   0.000001   0.000006  -0.000000   0.000000   0.000000
    12  N   -0.000186   0.000016  -0.000018  -0.000022  -0.000122  -0.000001
    13  N   -0.000406  -0.000019  -0.000138   0.000016  -0.000017  -0.000001
    14  B   -0.000209   0.000016  -0.000022   0.000017  -0.000024  -0.000000
    15  F    0.000003   0.000000  -0.000000   0.000000  -0.000000   0.000000
    16  F   -0.000004   0.000000  -0.000000   0.000000  -0.000000  -0.000000
    17  C    0.367495  -0.008269  -0.067208  -0.007729  -0.067542  -0.078219
    18  C   -0.005097   0.424685   0.454027  -0.047878   0.009241   0.022592
    19  C    5.236088  -0.046953   0.008941   0.422688   0.455513   0.023772
    20  C   -0.046953   5.143156  -0.043446   0.017580  -0.003312   0.400451
    21  H    0.008941  -0.043446   0.461476  -0.003184  -0.000057   0.010121
    22  C    0.422688   0.017580  -0.003184   5.146905  -0.044307   0.396303
    23  H    0.455513  -0.003312  -0.000057  -0.044307   0.462500   0.010384
    24  C    0.023772   0.400451   0.010121   0.396303   0.010384   4.765499
    25  H   -0.002872   0.440977  -0.006266   0.008341   0.000010  -0.054222
    26  H   -0.038510   0.008377   0.000010   0.442211  -0.006365  -0.055480
    27  H    0.000100   0.001462  -0.003414   0.000073   0.000013  -0.000144
    28  H    0.000000  -0.000000   0.000000   0.000000  -0.000000  -0.000000
    29  H   -0.006663   0.000178   0.000011   0.001653  -0.003364  -0.000316
    30  H    0.000002  -0.000000  -0.000000  -0.000000   0.000000   0.000000
    31  N   -0.002560  -0.058318  -0.000134  -0.057631  -0.000134   0.361327
    32  H    0.001196   0.006048   0.000011  -0.007059  -0.000026  -0.027655
    33  H   -0.000736  -0.006922  -0.000023   0.005874   0.000011  -0.027761
              25         26         27         28         29         30
     1  C    0.000032   0.000120  -0.001120   0.000140  -0.041810   0.002609
     2  C    0.000032  -0.000006  -0.041360   0.002568  -0.001051   0.000129
     3  C   -0.000195  -0.000250  -0.007759  -0.001267  -0.008155  -0.001250
     4  C    0.000002  -0.000011  -0.000033  -0.000005   0.436526   0.009022
     5  C   -0.000000  -0.000009   0.000003   0.000002  -0.029293  -0.033699
     6  C    0.000000   0.000001  -0.000004  -0.000009   0.006639   0.420842
     7  H   -0.000000  -0.000000  -0.000000  -0.000000  -0.002495  -0.001660
     8  C    0.000000  -0.000000   0.006475   0.420907  -0.000003  -0.000011
     9  C    0.000025   0.000007   0.435194   0.009068  -0.000025  -0.000005
    10  C   -0.000005   0.000000  -0.028621  -0.033703   0.000002   0.000002
    11  H   -0.000000  -0.000000  -0.002472  -0.001659  -0.000000  -0.000000
    12  N   -0.000000   0.000001   0.000032   0.000046   0.003559  -0.026992
    13  N    0.000001  -0.000000   0.003537  -0.027044   0.000032   0.000058
    14  B    0.000001   0.000001   0.000594  -0.000979   0.000583  -0.001105
    15  F    0.000000   0.000000   0.000007   0.000239   0.000005  -0.000263
    16  F    0.000000   0.000000   0.000005   0.000309   0.000007   0.000970
    17  C    0.010227   0.010494   0.003204  -0.000026   0.003125  -0.000025
    18  C   -0.038035  -0.002935  -0.006190   0.000001  -0.000020   0.000000
    19  C   -0.002872  -0.038510   0.000100   0.000000  -0.006663   0.000002
    20  C    0.440977   0.008377   0.001462  -0.000000   0.000178  -0.000000
    21  H   -0.006266   0.000010  -0.003414   0.000000   0.000011  -0.000000
    22  C    0.008341   0.442211   0.000073   0.000000   0.001653  -0.000000
    23  H    0.000010  -0.006365   0.000013  -0.000000  -0.003364   0.000000
    24  C   -0.054222  -0.055480  -0.000144  -0.000000  -0.000316   0.000000
    25  H    0.477663  -0.000116   0.000088   0.000000   0.000002  -0.000000
    26  H   -0.000116   0.478087   0.000001  -0.000000   0.000114  -0.000000
    27  H    0.000088   0.000001   0.434489  -0.000023  -0.000004  -0.000000
    28  H    0.000000  -0.000000  -0.000023   0.428634  -0.000000  -0.000001
    29  H    0.000002   0.000114  -0.000004  -0.000000   0.435312  -0.000024
    30  H   -0.000000  -0.000000  -0.000000  -0.000001  -0.000024   0.428692
    31  N    0.000666   0.000720  -0.000008  -0.000000  -0.000014  -0.000000
    32  H   -0.000118   0.002383   0.000000   0.000000  -0.000000  -0.000000
    33  H    0.002509  -0.000141   0.000001  -0.000000  -0.000000   0.000000
              31         32         33
     1  C   -0.000028  -0.000001  -0.000000
     2  C    0.000011   0.000002   0.000002
     3  C    0.000021   0.000002  -0.000001
     4  C    0.000017   0.000001   0.000000
     5  C    0.000000  -0.000000   0.000000
     6  C   -0.000000  -0.000000  -0.000000
     7  H    0.000000   0.000000   0.000000
     8  C   -0.000000   0.000000   0.000000
     9  C    0.000006  -0.000000  -0.000001
    10  C    0.000000  -0.000000  -0.000000
    11  H    0.000000   0.000000  -0.000000
    12  N   -0.000000  -0.000000  -0.000000
    13  N    0.000000  -0.000000   0.000000
    14  B    0.000000   0.000000   0.000000
    15  F    0.000000   0.000000   0.000000
    16  F    0.000000  -0.000000   0.000000
    17  C    0.003636   0.000026  -0.000015
    18  C   -0.002428  -0.000797   0.001214
    19  C   -0.002560   0.001196  -0.000736
    20  C   -0.058318   0.006048  -0.006922
    21  H   -0.000134   0.000011  -0.000023
    22  C   -0.057631  -0.007059   0.005874
    23  H   -0.000134  -0.000026   0.000011
    24  C    0.361327  -0.027655  -0.027761
    25  H    0.000666  -0.000118   0.002509
    26  H    0.000720   0.002383  -0.000141
    27  H   -0.000008   0.000000   0.000001
    28  H   -0.000000   0.000000  -0.000000
    29  H   -0.000014  -0.000000  -0.000000
    30  H   -0.000000  -0.000000   0.000000
    31  N    6.525126   0.374719   0.375057
    32  H    0.374719   0.375453  -0.022884
    33  H    0.375057  -0.022884   0.375385
 Mulliken charges:
               1
     1  C    0.158533
     2  C    0.167892
     3  C    0.120889
     4  C   -0.275425
     5  C   -0.169063
     6  C   -0.111534
     7  H    0.185043
     8  C   -0.112521
     9  C   -0.282719
    10  C   -0.165929
    11  H    0.185116
    12  N   -0.034392
    13  N   -0.038301
    14  B    0.356403
    15  F   -0.365637
    16  F   -0.366271
    17  C    0.071547
    18  C   -0.312266
    19  C   -0.316357
    20  C   -0.272074
    21  H    0.188056
    22  C   -0.270532
    23  H    0.186819
    24  C    0.256209
    25  H    0.161255
    26  H    0.161299
    27  H    0.205877
    28  H    0.202802
    29  H    0.205490
    30  H    0.202709
    31  N   -0.520051
    32  H    0.298701
    33  H    0.298431
 Sum of Mulliken charges =  -0.00000
 Mulliken charges with hydrogens summed into heavy atoms:
               1
     1  C    0.158533
     2  C    0.167892
     3  C    0.120889
     4  C   -0.069935
     5  C    0.015980
     6  C    0.091175
     8  C    0.090281
     9  C   -0.076841
    10  C    0.019188
    12  N   -0.034392
    13  N   -0.038301
    14  B    0.356403
    15  F   -0.365637
    16  F   -0.366271
    17  C    0.071547
    18  C   -0.124210
    19  C   -0.129539
    20  C   -0.110818
    22  C   -0.109234
    24  C    0.256209
    31  N    0.077081
 Electronic spatial extent (au):  <R**2>=           6182.6721
 Charge=             -0.0000 electrons
 Dipole moment (field-independent basis, Debye):
    X=             -9.5814    Y=             -0.5001    Z=             -0.6769  Tot=              9.6183
 Quadrupole moment (field-independent basis, Debye-Ang):
   XX=           -100.3941   YY=            -95.1417   ZZ=           -125.4585
   XY=              3.2688   XZ=              2.5982   YZ=             -3.8412
 Traceless Quadrupole moment (field-independent basis, Debye-Ang):
   XX=              6.6040   YY=             11.8564   ZZ=            -18.4604
   XY=              3.2688   XZ=              2.5982   YZ=             -3.8412
 Octapole moment (field-independent basis, Debye-Ang**2):
  XXX=           -302.5188  YYY=             -0.7041  ZZZ=             -0.6010  XYY=             47.0935
  XXY=            -20.3362  XXZ=            -20.9994  XZZ=            -17.0412  YZZ=             -0.3361
  YYZ=             -0.9072  XYZ=             26.9876
 Hexadecapole moment (field-independent basis, Debye-Ang**3):
 XXXX=          -4070.2296 YYYY=          -1827.1315 ZZZZ=           -368.5684 XXXY=            132.0163
 XXXZ=            124.9485 YYYX=              5.5309 YYYZ=             34.6368 ZZZX=              4.3265
 ZZZY=            -24.5112 XXYY=          -1102.8530 XXZZ=          -1012.8324 YYZZ=           -456.1333
 XXYZ=           -103.3452 YYXZ=             -1.2259 ZZXY=              0.2835
 N-N= 1.589672575434D+03 E-N=-5.442421461343D+03  KE= 9.631810994756D+02
 Unable to Open any file for archive entry.
 1\1\GINC-X1002C1S2B0N1\SP\RwB97XD TD-FC\def2TZVP\C15H12B1F2N3\1008721\
 07-Oct-2025\0\\# wb97xd/def2tzvp geom=check guess=read TD=(NStates=3, 
 Root=1) SCRF=(SMD, solvent=ethanol, CorrectedLR)\\BDP-NH2_ethanol_wb97
 xd_wb97xd_wb97xd\\0,1\C,0,0.625275685,-1.2128190873,-0.0832037801\C,0,
 0.6278562014,1.2166982343,0.0512962516\C,0,-0.0905361151,0.002397902,-
 0.0095930995\C,0,0.1725289992,-2.5407430983,-0.2598517274\C,0,1.300613
 9792,-3.3542754325,-0.3216725766\C,0,2.4125415017,-2.5083393033,-0.200
 6247532\H,0,1.331473642,-4.4338758655,-0.4541253295\C,0,2.418720588,2.
 5105776135,0.124998265\C,0,0.1795260012,2.5487511005,0.2073078193\C,0,
 1.3097043485,3.3610332681,0.2406550113\H,0,1.3437629052,4.4432124546,0
 .3491234486\N,0,2.0126008996,-1.2373152943,-0.0607775982\N,0,2.0151465
 594,1.2377957484,0.0145446982\B,0,2.9420231115,-0.0019028311,0.0071488
 297\F,0,3.7099877557,-0.0321021272,1.1741287045\F,0,3.7884720619,0.025
 6044535,-1.1028039209\C,0,-1.5562888389,0.0020305537,0.000082175\C,0,-
 2.2924847543,0.8581105796,-0.8421346991\C,0,-2.2779060775,-0.857042833
 4,0.8518529085\C,0,-3.6763305988,0.8518911555,-0.8438693432\H,0,-1.765
 9801258,1.5116539363,-1.5410730297\C,0,-3.6615389545,-0.8525566617,0.8
 759497025\H,0,-1.7392204944,-1.5139523015,1.538239247\C,0,-4.397792294
 4,0.0011179901,0.0237801001\H,0,-4.2231298573,1.5065599199,-1.52711356
 92\H,0,-4.1963599189,-1.5105617432,1.5654089965\H,0,-0.8573424091,2.86
 42884272,0.3009841476\H,0,3.4786338986,2.7641212636,0.1318660952\H,0,-
 0.8660844974,-2.851389824,-0.3510853475\H,0,3.4717817751,-2.7638033683
 ,-0.221451716\N,0,-5.7562262712,0.0249296992,0.0593092343\H,0,-6.25170
 47277,-0.7173039906,0.5373188997\H,0,-6.2618859779,0.5027124621,-0.676
 1330445\\Version=ES64L-G16RevC.01\State=1-A\HF=-967.8714383\RMSD=1.222
 e-09\Dipole=-3.7704344,-0.1967799,-0.2542976\Quadrupole=4.9208704,8.86
 61532,-13.7870236,2.4011084,1.8864886,-2.6658112\PG=C01 [X(C15H12B1F2N
 3)]\\@
 The archive entry for this job was punched.


 I WOULD TAKE COUNSEL OF MYSELF.
 I WOULD STOP AND LOOK WITHIN
 AND LOOKING WITHIN, LOOK BACK, ALSO
 THAT I MAY LOOK AHEAD WITH CLEARER UNDERSTANDING
 OF THE WAY I HAVE BEEN MOVING, AND IN WHAT DIRECTION.
 I NEED TO KNOW IF I AM GOING FORWARD OR RETREATING,
 WHETHER I HAVE BEEN WASTING, OR ENJOYING
 THE PRECIOUS MOMENTS OF LIFE.  THERE HAVE BEEN FRICTIONS,
 ANNOYANCES AND SOMETIMES WRATH,
 BUT WERE THEY BECAUSE I WAS RIGHT AND OTHERS WRONG.....
 HAVE I HAD MY THOUGHTS TOO SHARPLY FOCUSED
 ON THAT WHICH PLEASED ME, SERVED MY SELF-ESTEEM,
 UNDERGIRDED MY SECURITY,
 OF WHICH I DID NOT INQUIRE WHETHER IT SERVED OR HAMPERED OTHERS.....
 HAVE I BEEN TRYING TO STOP THE CLOCK
 TO HOLD THE WORLD
 IN PERPETUATION OF WHAT WAS AN IS ALREADY SLIPPING AWAY.....
 HAVE I BEEN CRITICAL OF OTHERS FOR WHAT REALLY NEEDED CHANGING IN ME...
 LET ME INDEED TAKE COUNSEL OF MYSELF
 AND SET MY DIRECTIONS STRAIGHT.

                          R.T. WESTON AS ADAPTED BY D. OSBORN 1967
 Job cpu time:       1 days  5 hours 10 minutes 51.6 seconds.
 Elapsed time:       0 days  0 hours 55 minutes  6.9 seconds.
 File lengths (MBytes):  RWF=   1749 Int=      0 D2E=      0 Chk=     94 Scr=      1
 Normal termination of Gaussian 16 at Tue Oct  7 10:55:50 2025.
