 Entering Gaussian System, Link 0=g16
 Initial command:
 /home/users/sutd/1008721/g16/l1.exe "/home/users/sutd/1008721/scratch/g16/scratch/Gau-2486204.inp" -scrdir="/home/users/sutd/1008721/scratch/g16/scratch/"
 Entering Link 1 = /home/users/sutd/1008721/g16/l1.exe PID=   2486205.
  
 Copyright (c) 1988-2019, Gaussian, Inc.  All Rights Reserved.
  
 This is part of the Gaussian(R) 16 program.  It is based on
 the Gaussian(R) 09 system (copyright 2009, Gaussian, Inc.),
 the Gaussian(R) 03 system (copyright 2003, Gaussian, Inc.),
 the Gaussian(R) 98 system (copyright 1998, Gaussian, Inc.),
 the Gaussian(R) 94 system (copyright 1995, Gaussian, Inc.),
 the Gaussian 92(TM) system (copyright 1992, Gaussian, Inc.),
 the Gaussian 90(TM) system (copyright 1990, Gaussian, Inc.),
 the Gaussian 88(TM) system (copyright 1988, Gaussian, Inc.),
 the Gaussian 86(TM) system (copyright 1986, Carnegie Mellon
 University), and the Gaussian 82(TM) system (copyright 1983,
 Carnegie Mellon University). Gaussian is a federally registered
 trademark of Gaussian, Inc.
  
 This software contains proprietary and confidential information,
 including trade secrets, belonging to Gaussian, Inc.
  
 This software is provided under written license and may be
 used, copied, transmitted, or stored only in accord with that
 written license.
  
 The following legend is applicable only to US Government
 contracts under FAR:
  
                    RESTRICTED RIGHTS LEGEND
  
 Use, reproduction and disclosure by the US Government is
 subject to restrictions as set forth in subparagraphs (a)
 and (c) of the Commercial Computer Software - Restricted
 Rights clause in FAR 52.227-19.
  
 Gaussian, Inc.
 340 Quinnipiac St., Bldg. 40, Wallingford CT 06492
  
  
 ---------------------------------------------------------------
 Warning -- This program may not be used in any manner that
 competes with the business of Gaussian, Inc. or will provide
 assistance to any competitor of Gaussian, Inc.  The licensee
 of this program is prohibited from giving any competitor of
 Gaussian, Inc. access to this program.  By using this program,
 the user acknowledges that Gaussian, Inc. is engaged in the
 business of creating and licensing software in the field of
 computational chemistry and represents and warrants to the
 licensee that it is not a competitor of Gaussian, Inc. and that
 it will not use this program in any manner prohibited above.
 ---------------------------------------------------------------
  

 Cite this work as:
 Gaussian 16, Revision C.01,
 M. J. Frisch, G. W. Trucks, H. B. Schlegel, G. E. Scuseria, 
 M. A. Robb, J. R. Cheeseman, G. Scalmani, V. Barone, 
 G. A. Petersson, H. Nakatsuji, X. Li, M. Caricato, A. V. Marenich, 
 J. Bloino, B. G. Janesko, R. Gomperts, B. Mennucci, H. P. Hratchian, 
 J. V. Ortiz, A. F. Izmaylov, J. L. Sonnenberg, D. Williams-Young, 
 F. Ding, F. Lipparini, F. Egidi, J. Goings, B. Peng, A. Petrone, 
 T. Henderson, D. Ranasinghe, V. G. Zakrzewski, J. Gao, N. Rega, 
 G. Zheng, W. Liang, M. Hada, M. Ehara, K. Toyota, R. Fukuda, 
 J. Hasegawa, M. Ishida, T. Nakajima, Y. Honda, O. Kitao, H. Nakai, 
 T. Vreven, K. Throssell, J. A. Montgomery, Jr., J. E. Peralta, 
 F. Ogliaro, M. J. Bearpark, J. J. Heyd, E. N. Brothers, K. N. Kudin, 
 V. N. Staroverov, T. A. Keith, R. Kobayashi, J. Normand, 
 K. Raghavachari, A. P. Rendell, J. C. Burant, S. S. Iyengar, 
 J. Tomasi, M. Cossi, J. M. Millam, M. Klene, C. Adamo, R. Cammi, 
 J. W. Ochterski, R. L. Martin, K. Morokuma, O. Farkas, 
 J. B. Foresman, and D. J. Fox, Gaussian, Inc., Wallingford CT, 2019.
 
 ******************************************
 Gaussian 16:  ES64L-G16RevC.01  3-Jul-2019
                 7-Oct-2025 
 ******************************************
 %nprocshared=32
 Will use up to   32 processors via shared memory.
 %mem=64GB
 %oldchk=05BDP-NH2_ethanol_wb97xd_wb97xd_wb97xd.chk
 %chk=06BDP-NH2_ethanol_wb97xd_wb97xd_wb97xd.chk
 Copying data from "05BDP-NH2_ethanol_wb97xd_wb97xd_wb97xd.chk" to current chk file "06BDP-NH2_ethanol_wb97xd_wb97xd_wb97xd.chk"
 IOpt=  2 FromEx=T IUOpen= 4 IOptOp= 5 NList=   0 IFRang= 0 IUIn= 4 IUOut= 2.
 ----------------------------------------------------------------------
 # wb97xd/def2tzvp geom=check guess=read TD=(Read, NStates=3, Root=1) S
 CRF=(SMD, solvent=ethanol, CorrectedLR, NonEq=Save)
 ----------------------------------------------------------------------
 1/29=2,30=1,38=1,172=1/1;
 2/12=2,40=1/2;
 3/5=44,7=101,11=9,14=-4,25=1,30=1,70=9032201,71=1,72=4,74=-58,116=-2/1,2,3,8;
 4/5=1/1;
 5/5=2,38=6,53=4/2;
 8/6=1,10=1,107=1,108=3/1;
 9/8=1,15=1,41=3,42=1,49=3,70=2,73=22/14;
 10/5=4,13=10,28=1,74=20/2;
 6/7=2,8=2,9=2,10=2,22=-1/1;
 99/5=1,9=1/99;
 ------------------------------------
 BDP-NH2_ethanol_wb97xd_wb97xd_wb97xd
 ------------------------------------
 Structure from the checkpoint file:  "06BDP-NH2_ethanol_wb97xd_wb97xd_wb97xd.chk"
 Charge =  0 Multiplicity = 1
 Redundant internal coordinates found in file.  (old form).
 C,0,0.6321424036,-1.2079589539,-0.105245744
 C,0,0.6358907734,1.2164371418,0.0566277468
 C,0,-0.1036029549,0.0045926609,-0.0107663078
 C,0,0.1820385411,-2.5559095809,-0.2825578776
 C,0,1.3116436682,-3.3551137291,-0.3484322664
 C,0,2.4330163112,-2.5015273108,-0.220878268
 H,0,1.3547185846,-4.4345601556,-0.4837888055
 C,0,2.4441419298,2.5036800118,0.1230512551
 C,0,0.1927594961,2.5754226256,0.1580302673
 C,0,1.3265578775,3.3698475884,0.1915433259
 H,0,1.3753965716,4.4550568972,0.2645529358
 N,0,2.026032213,-1.2290934736,-0.0764031194
 N,0,2.0309125412,1.2276424464,0.0462840345
 B,0,2.9555039481,-0.0072919109,0.0661312529
 F,0,3.665884963,-0.0649642239,1.2707293783
 F,0,3.8644762423,0.0416665193,-0.9936246902
 C,0,-1.5768032987,0.0013728086,0.0013144101
 C,0,-2.3208094106,0.8195567641,-0.866736166
 C,0,-2.2950060964,-0.825326087,0.8832253204
 C,0,-3.7089462525,0.8143581757,-0.8585042099
 H,0,-1.8003868899,1.4627415998,-1.5809593566
 C,0,-3.6828751112,-0.8370422813,0.9012284884
 H,0,-1.752704346,-1.460553932,1.5884318802
 C,0,-4.4240567601,-0.0171622924,0.0266893817
 H,0,-4.2591052525,1.4554903058,-1.5524526328
 H,0,-4.212167917,-1.4832886443,1.6066211626
 H,0,-0.8451172412,2.8964199916,0.2070268548
 H,0,3.5053666321,2.7538953583,0.1378271631
 H,0,-0.8575687353,-2.8645564047,-0.3659914987
 H,0,3.4928771576,-2.757126909,-0.2358649011
 N,0,-5.7956470617,-0.0605208754,0.0060062462
 H,0,-6.2598436033,-0.4437225332,0.8214219495
 H,0,-6.278365923,0.7252484026,-0.4143722095
 Recover connectivity data from disk.
                           ----------------------------
                           !    Current Parameters    !
                           ! (Angstroms and Degrees)  !
 --------------------------                            --------------------------
 ! Name  Definition              Value                                          !
 --------------------------------------------------------------------------------
 ! R1    R(1,3)                  1.4215                                         !
 ! R2    R(1,4)                  1.4321                                         !
 ! R3    R(1,12)                 1.3943                                         !
 ! R4    R(2,3)                  1.4213                                         !
 ! R5    R(2,9)                  1.433                                          !
 ! R6    R(2,13)                 1.3951                                         !
 ! R7    R(3,17)                 1.4733                                         !
 ! R8    R(4,5)                  1.3853                                         !
 ! R9    R(4,29)                 1.0877                                         !
 ! R10   R(5,6)                  1.415                                          !
 ! R11   R(5,7)                  1.0888                                         !
 ! R12   R(6,12)                 1.3437                                         !
 ! R13   R(6,30)                 1.0903                                         !
 ! R14   R(8,10)                 1.4156                                         !
 ! R15   R(8,13)                 1.3435                                         !
 ! R16   R(8,28)                 1.0904                                         !
 ! R17   R(9,10)                 1.3848                                         !
 ! R18   R(9,27)                 1.0875                                         !
 ! R19   R(10,11)                1.0888                                         !
 ! R20   R(12,14)                1.5418                                         !
 ! R21   R(13,14)                1.5428                                         !
 ! R22   R(14,15)                1.3997                                         !
 ! R23   R(14,16)                1.397                                          !
 ! R24   R(17,18)                1.4059                                         !
 ! R25   R(17,19)                1.4061                                         !
 ! R26   R(18,20)                1.3882                                         !
 ! R27   R(18,21)                1.093                                          !
 ! R28   R(19,22)                1.388                                          !
 ! R29   R(19,23)                1.0931                                         !
 ! R30   R(20,24)                1.4094                                         !
 ! R31   R(20,25)                1.0933                                         !
 ! R32   R(22,24)                1.4094                                         !
 ! R33   R(22,26)                1.0933                                         !
 ! R34   R(24,31)                1.3724                                         !
 ! R35   R(31,32)                1.0135                                         !
 ! R36   R(31,33)                1.0135                                         !
 ! A1    A(3,1,4)              130.4246                                         !
 ! A2    A(3,1,12)             121.9369                                         !
 ! A3    A(4,1,12)             107.6067                                         !
 ! A4    A(3,2,9)              130.6229                                         !
 ! A5    A(3,2,13)             121.7879                                         !
 ! A6    A(9,2,13)             107.5851                                         !
 ! A7    A(1,3,2)              117.4638                                         !
 ! A8    A(1,3,17)             121.0819                                         !
 ! A9    A(2,3,17)             121.4509                                         !
 ! A10   A(1,4,5)              107.0145                                         !
 ! A11   A(1,4,29)             125.2392                                         !
 ! A12   A(5,4,29)             127.7367                                         !
 ! A13   A(4,5,6)              107.0913                                         !
 ! A14   A(4,5,7)              127.6008                                         !
 ! A15   A(6,5,7)              125.3043                                         !
 ! A16   A(5,6,12)             109.9311                                         !
 ! A17   A(5,6,30)             128.8776                                         !
 ! A18   A(12,6,30)            121.1894                                         !
 ! A19   A(10,8,13)            109.9435                                         !
 ! A20   A(10,8,28)            128.8494                                         !
 ! A21   A(13,8,28)            121.2028                                         !
 ! A22   A(2,9,10)             107.0118                                         !
 ! A23   A(2,9,27)             125.327                                          !
 ! A24   A(10,9,27)            127.659                                          !
 ! A25   A(8,10,9)             107.1089                                         !
 ! A26   A(8,10,11)            125.2895                                         !
 ! A27   A(9,10,11)            127.5999                                         !
 ! A28   A(1,12,6)             108.3552                                         !
 ! A29   A(1,12,14)            126.3393                                         !
 ! A30   A(6,12,14)            125.294                                          !
 ! A31   A(2,13,8)             108.3469                                         !
 ! A32   A(2,13,14)            126.3504                                         !
 ! A33   A(8,13,14)            125.1131                                         !
 ! A34   A(12,14,13)           105.7741                                         !
 ! A35   A(12,14,15)           110.6642                                         !
 ! A36   A(12,14,16)           110.4807                                         !
 ! A37   A(13,14,15)           110.3781                                         !
 ! A38   A(13,14,16)           110.6164                                         !
 ! A39   A(15,14,16)           108.9096                                         !
 ! A40   A(3,17,18)            121.5242                                         !
 ! A41   A(3,17,19)            121.1446                                         !
 ! A42   A(18,17,19)           117.3311                                         !
 ! A43   A(17,18,20)           121.5578                                         !
 ! A44   A(17,18,21)           119.6013                                         !
 ! A45   A(20,18,21)           118.8298                                         !
 ! A46   A(17,19,22)           121.5893                                         !
 ! A47   A(17,19,23)           119.5314                                         !
 ! A48   A(22,19,23)           118.8665                                         !
 ! A49   A(18,20,24)           120.8847                                         !
 ! A50   A(18,20,25)           119.8176                                         !
 ! A51   A(24,20,25)           119.2954                                         !
 ! A52   A(19,22,24)           120.855                                          !
 ! A53   A(19,22,26)           119.8289                                         !
 ! A54   A(24,22,26)           119.3143                                         !
 ! A55   A(20,24,22)           117.7817                                         !
 ! A56   A(20,24,31)           121.0813                                         !
 ! A57   A(22,24,31)           121.1005                                         !
 ! A58   A(24,31,32)           117.2287                                         !
 ! A59   A(24,31,33)           117.2425                                         !
 ! A60   A(32,31,33)           114.1232                                         !
 ! D1    D(4,1,3,2)           -174.9855                                         !
 ! D2    D(4,1,3,17)             4.3483                                         !
 ! D3    D(12,1,3,2)             2.6965                                         !
 ! D4    D(12,1,3,17)         -177.9697                                         !
 ! D5    D(3,1,4,5)            178.2681                                         !
 ! D6    D(3,1,4,29)            -0.6754                                         !
 ! D7    D(12,1,4,5)             0.3318                                         !
 ! D8    D(12,1,4,29)         -178.6117                                         !
 ! D9    D(3,1,12,6)          -178.3328                                         !
 ! D10   D(3,1,12,14)            0.4799                                         !
 ! D11   D(4,1,12,6)            -0.1839                                         !
 ! D12   D(4,1,12,14)          178.6287                                         !
 ! D13   D(9,2,3,1)           -179.8684                                         !
 ! D14   D(9,2,3,17)             0.8004                                         !
 ! D15   D(13,2,3,1)            -0.6978                                         !
 ! D16   D(13,2,3,17)          179.971                                          !
 ! D17   D(3,2,9,10)           179.8919                                         !
 ! D18   D(3,2,9,27)             0.3932                                         !
 ! D19   D(13,2,9,10)            0.6314                                         !
 ! D20   D(13,2,9,27)         -178.8673                                         !
 ! D21   D(3,2,13,8)          -179.8692                                         !
 ! D22   D(3,2,13,14)           -4.6897                                         !
 ! D23   D(9,2,13,8)            -0.5296                                         !
 ! D24   D(9,2,13,14)          174.6499                                         !
 ! D25   D(1,3,17,18)         -128.9967                                         !
 ! D26   D(1,3,17,19)           50.8795                                         !
 ! D27   D(2,3,17,18)           50.3104                                         !
 ! D28   D(2,3,17,19)         -129.8134                                         !
 ! D29   D(1,4,5,6)             -0.3463                                         !
 ! D30   D(1,4,5,7)           -179.6898                                         !
 ! D31   D(29,4,5,6)           178.5626                                         !
 ! D32   D(29,4,5,7)            -0.7809                                         !
 ! D33   D(4,5,6,12)             0.2434                                         !
 ! D34   D(4,5,6,30)          -179.2571                                         !
 ! D35   D(7,5,6,12)           179.6061                                         !
 ! D36   D(7,5,6,30)             0.1056                                         !
 ! D37   D(5,6,12,1)            -0.0329                                         !
 ! D38   D(5,6,12,14)         -178.8611                                         !
 ! D39   D(30,6,12,1)          179.5125                                         !
 ! D40   D(30,6,12,14)           0.6844                                         !
 ! D41   D(13,8,10,9)            0.1732                                         !
 ! D42   D(13,8,10,11)         179.7313                                         !
 ! D43   D(28,8,10,9)         -179.0722                                         !
 ! D44   D(28,8,10,11)           0.4859                                         !
 ! D45   D(10,8,13,2)            0.2283                                         !
 ! D46   D(10,8,13,14)        -175.0257                                         !
 ! D47   D(28,8,13,2)          179.5411                                         !
 ! D48   D(28,8,13,14)           4.2871                                         !
 ! D49   D(2,9,10,8)            -0.4894                                         !
 ! D50   D(2,9,10,11)          179.9658                                         !
 ! D51   D(27,9,10,8)          178.9939                                         !
 ! D52   D(27,9,10,11)          -0.5509                                         !
 ! D53   D(1,12,14,13)          -4.7089                                         !
 ! D54   D(1,12,14,15)         114.8461                                         !
 ! D55   D(1,12,14,16)        -124.4503                                         !
 ! D56   D(6,12,14,13)         173.9103                                         !
 ! D57   D(6,12,14,15)         -66.5346                                         !
 ! D58   D(6,12,14,16)          54.169                                          !
 ! D59   D(2,13,14,12)           6.7924                                         !
 ! D60   D(2,13,14,15)        -112.9508                                         !
 ! D61   D(2,13,14,16)         126.4445                                         !
 ! D62   D(8,13,14,12)        -178.8032                                         !
 ! D63   D(8,13,14,15)          61.4536                                         !
 ! D64   D(8,13,14,16)         -59.1511                                         !
 ! D65   D(3,17,18,20)         179.8191                                         !
 ! D66   D(3,17,18,21)           1.0455                                         !
 ! D67   D(19,17,18,20)         -0.0616                                         !
 ! D68   D(19,17,18,21)       -178.8352                                         !
 ! D69   D(3,17,19,22)        -179.9137                                         !
 ! D70   D(3,17,19,23)           1.404                                          !
 ! D71   D(18,17,19,22)         -0.0326                                         !
 ! D72   D(18,17,19,23)       -178.7149                                         !
 ! D73   D(17,18,20,24)          0.004                                          !
 ! D74   D(17,18,20,25)       -179.4339                                         !
 ! D75   D(21,18,20,24)        178.7868                                         !
 ! D76   D(21,18,20,25)         -0.6511                                         !
 ! D77   D(17,19,22,24)          0.1852                                         !
 ! D78   D(17,19,22,26)       -179.3331                                         !
 ! D79   D(23,19,22,24)        178.8761                                         !
 ! D80   D(23,19,22,26)         -0.6423                                         !
 ! D81   D(18,20,24,22)          0.1435                                         !
 ! D82   D(18,20,24,31)       -177.6798                                         !
 ! D83   D(25,20,24,22)        179.5843                                         !
 ! D84   D(25,20,24,31)          1.761                                          !
 ! D85   D(19,22,24,20)         -0.2364                                         !
 ! D86   D(19,22,24,31)        177.5864                                         !
 ! D87   D(26,22,24,20)        179.2843                                         !
 ! D88   D(26,22,24,31)         -2.8928                                         !
 ! D89   D(20,24,31,32)       -162.0711                                         !
 ! D90   D(20,24,31,33)        -20.6354                                         !
 ! D91   D(22,24,31,32)         20.178                                          !
 ! D92   D(22,24,31,33)        161.6137                                         !
 --------------------------------------------------------------------------------
                          Input orientation:                          
 ---------------------------------------------------------------------
 Center     Atomic      Atomic             Coordinates (Angstroms)
 Number     Number       Type             X           Y           Z
 ---------------------------------------------------------------------
      1          6           0        0.632142   -1.207959   -0.105246
      2          6           0        0.635891    1.216437    0.056628
      3          6           0       -0.103603    0.004593   -0.010766
      4          6           0        0.182039   -2.555910   -0.282558
      5          6           0        1.311644   -3.355114   -0.348432
      6          6           0        2.433016   -2.501527   -0.220878
      7          1           0        1.354719   -4.434560   -0.483789
      8          6           0        2.444142    2.503680    0.123051
      9          6           0        0.192759    2.575423    0.158030
     10          6           0        1.326558    3.369848    0.191543
     11          1           0        1.375397    4.455057    0.264553
     12          7           0        2.026032   -1.229093   -0.076403
     13          7           0        2.030913    1.227642    0.046284
     14          5           0        2.955504   -0.007292    0.066131
     15          9           0        3.665885   -0.064964    1.270729
     16          9           0        3.864476    0.041667   -0.993625
     17          6           0       -1.576803    0.001373    0.001314
     18          6           0       -2.320809    0.819557   -0.866736
     19          6           0       -2.295006   -0.825326    0.883225
     20          6           0       -3.708946    0.814358   -0.858504
     21          1           0       -1.800387    1.462742   -1.580959
     22          6           0       -3.682875   -0.837042    0.901228
     23          1           0       -1.752704   -1.460554    1.588432
     24          6           0       -4.424057   -0.017162    0.026689
     25          1           0       -4.259105    1.455490   -1.552453
     26          1           0       -4.212168   -1.483289    1.606621
     27          1           0       -0.845117    2.896420    0.207027
     28          1           0        3.505367    2.753895    0.137827
     29          1           0       -0.857569   -2.864556   -0.365991
     30          1           0        3.492877   -2.757127   -0.235865
     31          7           0       -5.795647   -0.060521    0.006006
     32          1           0       -6.259844   -0.443723    0.821422
     33          1           0       -6.278366    0.725248   -0.414372
 ---------------------------------------------------------------------
                    Distance matrix (angstroms):
                    1          2          3          4          5
     1  C    0.000000
     2  C    2.429797   0.000000
     3  C    1.421453   1.421253   0.000000
     4  C    1.432133   3.814660   2.590682   0.000000
     5  C    2.265201   4.638943   3.661225   1.385307   0.000000
     6  C    2.220324   4.138832   3.572005   2.252479   1.415046
     7  H    3.328118   5.722109   4.696438   2.223736   1.088752
     8  C    4.136632   2.220626   3.571323   5.557075   5.985843
     9  C    3.817898   1.433000   2.593355   5.150224   6.056374
    10  C    4.639678   2.265480   3.662135   6.053866   6.746621
    11  H    5.723541   3.328477   4.697858   7.132817   7.834448
    12  N    1.394348   2.816169   2.462039   2.281064   2.259273
    13  N    2.812770   1.395105   2.460744   4.223948   4.655621
    14  B    2.620874   2.622634   3.060096   3.782743   3.752606
    15  F    3.521837   3.506693   3.981973   4.555732   4.357662
    16  F    3.577536   3.592615   4.088158   4.562167   4.297830
    17  C    2.520571   2.524967   1.473253   3.116697   4.442010
    18  C    3.662050   3.122850   2.512540   4.242556   5.557988
    19  C    3.113147   3.666363   2.508034   3.238784   4.574356
    20  C    4.847908   4.458334   3.791158   5.179786   6.546067
    21  H    3.902252   2.945812   2.733273   4.665342   5.866480
    22  C    4.446341   4.856116   3.788307   4.392427   5.731279
    23  H    2.935957   3.901037   2.724633   2.905794   4.090358
    24  C    5.196206   5.208237   4.320671   5.268490   6.646871
    25  H    5.754361   5.158224   4.663700   6.117820   7.458205
    26  H    5.145254   5.761482   4.659403   4.901894   6.151297
    27  H    4.373298   2.244626   2.993316   5.569797   6.636402
    28  H    4.900081   3.256419   4.539318   6.278158   6.509137
    29  H    2.243110   4.366181   2.987753   1.087661   2.224059
    30  H    3.255885   4.902768   4.540092   3.317276   2.264517
    31  N    6.530350   6.557276   5.692441   6.484054   7.841782
    32  H    6.995873   7.133876   6.228388   6.868621   8.195863
    33  H    7.182477   6.947665   6.229762   7.247082   8.617537
                    6          7          8          9         10
     6  C    0.000000
     7  H    2.229005   0.000000
     8  C    5.017022   7.049417   0.000000
     9  C    5.562171   7.134559   2.252797   0.000000
    10  C    5.988939   7.833623   1.415603   1.384822   0.000000
    11  H    7.053245   8.921084   2.229375   2.223286   1.088758
    12  N    1.343725   3.300249   3.761409   4.229680   4.659541
    13  N    3.760289   5.727020   1.343474   2.282062   2.259703
    14  B    2.564484   4.739792   2.563145   3.783070   3.751568
    15  F    3.111543   5.245302   3.067206   4.502482   4.293603
    16  F    3.018948   5.157075   3.053821   4.607356   4.349993
    17  C    4.732075   5.339162   4.737548   3.127562   4.451103
    18  C    5.834860   6.423543   5.149826   3.232838   4.574629
    19  C    5.136428   5.311854   5.841205   4.275509   5.585126
    20  C    7.008949   7.302894   6.455831   4.399773   5.743642
    21  H    5.957093   6.777658   4.690760   2.869630   4.068981
    22  C    6.436906   6.343324   7.021846   5.217069   6.579969
    23  H    4.677338   4.774399   5.956174   4.703189   5.896264
    24  C    7.297452   7.291655   7.316836   5.296578   6.675970
    25  H    7.887685   8.206690   6.988529   4.898888   6.156778
    26  H    6.966709   6.638527   7.899580   6.162381   7.498857
    27  H    6.329858   7.685036   3.313687   1.087487   2.222734
    28  H    5.375693   7.528983   1.090424   3.317473   2.264838
    29  H    3.313729   2.715327   6.321267   5.565174   6.629408
    30  H    1.090349   2.728914   5.376314   6.283472   6.512713
    31  N    8.586087   8.396419   8.630350   6.544641   7.907443
    32  H    8.993707   8.695511   9.215979   7.154817   8.514315
    33  H    9.291808   9.213708   8.918172   6.754721   8.074398
                   11         12         13         14         15
    11  H    0.000000
    12  N    5.731417   0.000000
    13  N    3.300537   2.459802   0.000000
    14  B    4.738002   1.541763   1.542831   0.000000
    15  F    5.166171   2.420554   2.417278   1.399651   0.000000
    16  F    5.220780   2.415782   2.418658   1.397036   2.275546
    17  C    5.349774   3.807954   3.810692   4.532779   5.394589
    18  C    5.306469   4.869972   4.465157   5.421568   6.418072
    19  C    6.460422   4.444692   4.860938   5.376307   6.021672
    20  C    6.353463   6.138188   5.825412   6.778271   7.726253
    21  H    4.737665   4.914382   4.169178   5.243320   6.351861
    22  C    7.348318   5.805264   6.135244   6.741954   7.398440
    23  H    6.821446   4.135710   4.890846   5.157189   5.604437
    24  C    7.327413   6.563768   6.573930   7.379673   8.185174
    25  H    6.636755   6.992043   6.494012   7.537250   8.549129
    26  H    8.263533   6.466245   6.982826   7.478449   8.011753
    27  H    2.713547   5.034252   3.328994   4.784989   5.500036
    28  H    2.728879   4.254236   2.124110   2.816318   3.042236
    29  H    7.678571   3.327725   5.025872   4.784372   5.565807
    30  H    7.533242   2.124135   4.253861   2.818078   3.089903
    31  N    8.478276   7.908920   7.931962   8.751519   9.545687
    32  H    9.088731   8.371298   8.492993   9.256542   9.943109
    33  H    8.541223   8.537957   8.337189   9.275336  10.116923
                   16         17         18         19         20
    16  F    0.000000
    17  C    5.531641   0.000000
    18  C    6.235301   1.405874   0.000000
    19  C    6.497189   1.406063   2.401806   0.000000
    20  C    7.613937   2.438497   1.388171   2.778743   0.000000
    21  H    5.869846   2.165451   1.092996   3.398839   2.141248
    22  C    7.831035   2.438919   2.779432   1.388035   2.413392
    23  H    6.362107   2.164974   3.398455   1.093125   3.871641
    24  C    8.351304   2.847427   2.433507   2.433031   1.409389
    25  H    8.264609   3.423944   2.152117   3.871994   1.093293
    26  H    8.620844   3.424380   3.872703   2.152144   3.407236
    27  H    5.636617   2.993156   2.764778   4.051027   3.697547
    28  H    2.960630   5.781303   6.220542   6.856440   7.536630
    29  H    5.580122   2.977543   3.995561   2.790202   4.680527
    30  H    2.923274   5.776438   6.854897   6.203532   8.062844
    31  N    9.712244   4.219300   3.689270   3.689028   2.422212
    32  H   10.297177   4.775097   4.467857   3.983639   3.303331
    33  H   10.182341   4.775090   3.984442   4.467124   2.609044
                   21         22         23         24         25
    21  H    0.000000
    22  C    3.872212   0.000000
    23  H    4.311957   2.141629   0.000000
    24  C    3.414424   1.409387   3.414461   0.000000
    25  H    2.458894   3.407095   4.964929   2.165549   0.000000
    26  H    4.965526   1.093327   2.459636   2.165781   4.314901
    27  H    2.482915   4.740625   4.659959   4.618473   4.102117
    28  H    5.724712   8.071458   6.892978   8.400409   8.051703
    29  H    4.592446   3.701218   2.567540   4.580577   5.625028
    30  H    6.901827   7.514727   5.703094   8.381777   8.920358
    31  N    4.560800   2.422440   4.561748   1.372431   2.662338
    32  H    5.412282   2.608033   4.683648   2.045401   3.639402
    33  H    4.685842   3.302746   5.410228   2.045525   2.430205
                   26         27         28         29         30
    26  H    0.000000
    27  H    5.698925   0.000000
    28  H    8.925885   4.353368   0.000000
    29  H    4.129460   5.789417   7.131342   0.000000
    30  H    8.024035   7.139814   5.523692   4.353717   0.000000
    31  N    2.663389   5.769892   9.718393   5.690836   9.675064
    32  H    2.426976   6.391658  10.298126   6.037794  10.078951
    33  H    3.637475   5.883903  10.007085   6.501852  10.374777
                   31         32         33
    31  N    0.000000
    32  H    1.013521   0.000000
    33  H    1.013493   1.701183   0.000000
 Stoichiometry    C15H12BF2N3
 Framework group  C1[X(C15H12BF2N3)]
 Deg. of freedom    93
 Full point group                 C1      NOp   1
 Largest Abelian subgroup         C1      NOp   1
 Largest concise Abelian subgroup C1      NOp   1
                         Standard orientation:                         
 ---------------------------------------------------------------------
 Center     Atomic      Atomic             Coordinates (Angstroms)
 Number     Number       Type             X           Y           Z
 ---------------------------------------------------------------------
      1          6           0        0.628747   -1.207699   -0.100327
      2          6           0        0.637675    1.217777    0.044253
      3          6           0       -0.104406    0.007065   -0.014515
      4          6           0        0.175765   -2.555915   -0.268033
      5          6           0        1.303661   -3.357980   -0.328179
      6          6           0        2.426854   -2.505904   -0.206688
      7          1           0        1.344430   -4.438454   -0.455833
      8          6           0        2.448672    2.501594    0.101538
      9          6           0        0.197448    2.578395    0.135950
     10          6           0        1.332941    3.370614    0.163825
     11          1           0        1.384098    4.456209    0.229094
     12          7           0        2.022588   -1.231605   -0.071301
     13          7           0        2.032717    1.225927    0.033863
     14          5           0        2.954668   -0.010807    0.062539
     15          9           0        3.664913   -0.061405    1.267535
     16          9           0        3.863752    0.028650   -0.997517
     17          6           0       -1.577610    0.007080   -0.002447
     18          6           0       -2.319858    0.820640   -0.876329
     19          6           0       -2.297586   -0.811772    0.885319
     20          6           0       -3.708003    0.818467   -0.868094
     21          1           0       -1.798056    1.457602   -1.595108
     22          6           0       -3.685477   -0.820394    0.903372
     23          1           0       -1.756649   -1.443112    1.595051
     24          6           0       -4.424897   -0.005190    0.022990
     25          1           0       -4.256785    1.455808   -1.566610
     26          1           0       -4.216156   -1.460461    1.613343
     27          1           0       -0.839741    2.901950    0.182631
     28          1           0        3.510429    2.749640    0.114555
     29          1           0       -0.864498   -2.862926   -0.349288
     30          1           0        3.486166   -2.763868   -0.219826
     31          7           0       -5.796577   -0.045764    0.002584
     32          1           0       -6.261598   -0.422148    0.820700
     33          1           0       -6.277611    0.738017   -0.423399
 ---------------------------------------------------------------------
 Rotational constants (GHZ):           0.5786882           0.2116879           0.1653387
 Standard basis: def2TZVP (5D, 7F)
 There are   828 symmetry adapted cartesian basis functions of A   symmetry.
 There are   723 symmetry adapted basis functions of A   symmetry.
   723 basis functions,  1167 primitive gaussians,   828 cartesian basis functions
    73 alpha electrons       73 beta electrons
       nuclear repulsion energy      1583.8957725435 Hartrees.
 NAtoms=   33 NActive=   33 NUniq=   33 SFac= 1.00D+00 NAtFMM=   60 NAOKFM=F Big=F
 Integral buffers will be    131072 words long.
 Raffenetti 1 integral format.
 Two-electron integral symmetry is turned on.
 Nuclear repulsion after empirical dispersion term =     1583.8706391529 Hartrees.
 ------------------------------------------------------------------------------
 Polarizable Continuum Model (PCM)
 =================================
 Model                : PCM.
 Atomic radii         : SMD-Coulomb.
 Polarization charges : Total charges.
 Charge compensation  : None.
 Solution method      : On-the-fly selection.
 Cavity type          : VdW (van der Waals Surface) (Alpha=1.000).
 Cavity algorithm     : GePol (No added spheres)
                        Default sphere list used, NSphG=   33.
                        Lebedev-Laikov grids with approx.  5.0 points / Ang**2.
                        Smoothing algorithm: York/Karplus (Gamma=1.0000).
                        Polarization charges: spherical gaussians, with
                                              point-specific exponents (IZeta= 3).
                        Self-potential: point-specific (ISelfS= 7).
                        Self-field    : sphere-specific E.n sum rule (ISelfD= 2).
 1st derivatives      : Analytical E(r).r(x)/FMM algorithm (CHGder, D1EAlg=3).
                        Cavity 1st derivative terms included.
 Solvent              : Ethanol, Eps=  24.852000 Eps(inf)=   1.852593
 ------------------------------------------------------------------------------
 ------------------------------------------------------------------------------
 Atomic radii for non-electrostatic terms: SMD-CDS.
 ------------------------------------------------------------------------------
 Nuclear repulsion after PCM non-electrostatic terms =     1583.8699211306 Hartrees.
 One-electron integrals computed using PRISM.
   1 Symmetry operations used in ECPInt.
 ECPInt:  NShTT=   39060 NPrTT=  121776 LenC2=   34333 LenP2D=   76566.
 LDataN:  DoStor=T MaxTD1= 6 Len=  172
 NBasis=   723 RedAO= T EigKep=  7.66D-06  NBF=   723
 NBsUse=   723 1.00D-06 EigRej= -1.00D+00 NBFU=   723
 Initial guess from the checkpoint file:  "06BDP-NH2_ethanol_wb97xd_wb97xd_wb97xd.chk"
 B after Tr=     0.000000    0.000000    0.000000
         Rot=    1.000000    0.000000    0.000000   -0.000000 Ang=   0.00 deg.
 Requested convergence on RMS density matrix=1.00D-08 within 128 cycles.
 Requested convergence on MAX density matrix=1.00D-06.
 Requested convergence on             energy=1.00D-06.
 No special actions if energy rises.
 Inv3:  Mode=1 IEnd=    19953723.
 Iteration    1 A*A^-1 deviation from unit magnitude is 4.44D-15 for   2559.
 Iteration    1 A*A^-1 deviation from orthogonality  is 2.64D-15 for   2556    582.
 Iteration    1 A^-1*A deviation from unit magnitude is 4.44D-15 for   2559.
 Iteration    1 A^-1*A deviation from orthogonality  is 3.63D-15 for   2569   1111.
 Error on total polarization charges =  0.04759
 SCF Done:  E(RwB97XD) =  -967.868809015     A.U. after    1 cycles
            NFock=  1  Conv=0.31D-08     -V/T= 2.0053
 SMD-CDS (non-electrostatic) energy       (kcal/mol) =      -0.45
 (included in total energy above)
 DoSCS=F DFT=T ScalE2(SS,OS)=  1.000000  1.000000
 ExpMin= 6.06D-02 ExpMax= 3.55D+04 ExpMxC= 1.21D+03 IAcc=3 IRadAn=         5 AccDes= 0.00D+00
 HarFok:  IExCor=  205 AccDes= 0.00D+00 IRadAn=         5 IDoV=-2 UseB2=F ITyADJ=14
 ICtDFT= 12500011 ScaDFX=  1.000000  1.000000  1.000000  1.000000
 GSVD:  LWork=        -609 too small for GESVD, short by        2520 words or        2520 for optimal perf.
 Range of M.O.s used for correlation:    22   723
 NBasis=   723 NAE=    73 NBE=    73 NFC=    21 NFV=     0
 NROrb=    702 NOA=    52 NOB=    52 NVA=   650 NVB=   650

 **** Warning!!: The largest alpha MO coefficient is  0.47641959D+02

 NEqPCM:  Using equilibrium solvation (IEInf=0, Eps=  24.8520, EpsInf=   1.8526)
 Orbital symmetries:
       Occupied  (A) (A) (A) (A) (A) (A) (A) (A) (A) (A) (A) (A)
                 (A) (A) (A) (A) (A) (A) (A) (A) (A) (A) (A) (A)
                 (A) (A) (A) (A) (A) (A) (A) (A) (A) (A) (A) (A)
                 (A) (A) (A) (A) (A) (A) (A) (A) (A) (A) (A) (A)
                 (A) (A) (A) (A) (A) (A) (A) (A) (A) (A) (A) (A)
                 (A) (A) (A) (A) (A) (A) (A) (A) (A) (A) (A) (A)
                 (A)
       Virtual   (A) (A) (A) (A) (A) (A) (A) (A) (A) (A) (A) (A)
                 (A) (A) (A) (A) (A) (A) (A) (A) (A) (A) (A) (A)
                 (A) (A) (A) (A) (A) (A) (A) (A) (A) (A) (A) (A)
                 (A) (A) (A) (A) (A) (A) (A) (A) (A) (A) (A) (A)
                 (A) (A) (A) (A) (A) (A) (A) (A) (A) (A) (A) (A)
                 (A) (A) (A) (A) (A) (A) (A) (A) (A) (A) (A) (A)
                 (A) (A) (A) (A) (A) (A) (A) (A) (A) (A) (A) (A)
                 (A) (A) (A) (A) (A) (A) (A) (A) (A) (A) (A) (A)
                 (A) (A) (A) (A) (A) (A) (A) (A) (A) (A) (A) (A)
                 (A) (A) (A) (A) (A) (A) (A) (A) (A) (A) (A) (A)
                 (A) (A) (A) (A) (A) (A) (A) (A) (A) (A) (A) (A)
                 (A) (A) (A) (A) (A) (A) (A) (A) (A) (A) (A) (A)
                 (A) (A) (A) (A) (A) (A) (A) (A) (A) (A) (A) (A)
                 (A) (A) (A) (A) (A) (A) (A) (A) (A) (A) (A) (A)
                 (A) (A) (A) (A) (A) (A) (A) (A) (A) (A) (A) (A)
                 (A) (A) (A) (A) (A) (A) (A) (A) (A) (A) (A) (A)
                 (A) (A) (A) (A) (A) (A) (A) (A) (A) (A) (A) (A)
                 (A) (A) (A) (A) (A) (A) (A) (A) (A) (A) (A) (A)
                 (A) (A) (A) (A) (A) (A) (A) (A) (A) (A) (A) (A)
                 (A) (A) (A) (A) (A) (A) (A) (A) (A) (A) (A) (A)
                 (A) (A) (A) (A) (A) (A) (A) (A) (A) (A) (A) (A)
                 (A) (A) (A) (A) (A) (A) (A) (A) (A) (A) (A) (A)
                 (A) (A) (A) (A) (A) (A) (A) (A) (A) (A) (A) (A)
                 (A) (A) (A) (A) (A) (A) (A) (A) (A) (A) (A) (A)
                 (A) (A) (A) (A) (A) (A) (A) (A) (A) (A) (A) (A)
                 (A) (A) (A) (A) (A) (A) (A) (A) (A) (A) (A) (A)
                 (A) (A) (A) (A) (A) (A) (A) (A) (A) (A) (A) (A)
                 (A) (A) (A) (A) (A) (A) (A) (A) (A) (A) (A) (A)
                 (A) (A) (A) (A) (A) (A) (A) (A) (A) (A) (A) (A)
                 (A) (A) (A) (A) (A) (A) (A) (A) (A) (A) (A) (A)
                 (A) (A) (A) (A) (A) (A) (A) (A) (A) (A) (A) (A)
                 (A) (A) (A) (A) (A) (A) (A) (A) (A) (A) (A) (A)
                 (A) (A) (A) (A) (A) (A) (A) (A) (A) (A) (A) (A)
                 (A) (A) (A) (A) (A) (A) (A) (A) (A) (A) (A) (A)
                 (A) (A) (A) (A) (A) (A) (A) (A) (A) (A) (A) (A)
                 (A) (A) (A) (A) (A) (A) (A) (A) (A) (A) (A) (A)
                 (A) (A) (A) (A) (A) (A) (A) (A) (A) (A) (A) (A)
                 (A) (A) (A) (A) (A) (A) (A) (A) (A) (A) (A) (A)
                 (A) (A) (A) (A) (A) (A) (A) (A) (A) (A) (A) (A)
                 (A) (A) (A) (A) (A) (A) (A) (A) (A) (A) (A) (A)
                 (A) (A) (A) (A) (A) (A) (A) (A) (A) (A) (A) (A)
                 (A) (A) (A) (A) (A) (A) (A) (A) (A) (A) (A) (A)
                 (A) (A) (A) (A) (A) (A) (A) (A) (A) (A) (A) (A)
                 (A) (A) (A) (A) (A) (A) (A) (A) (A) (A) (A) (A)
                 (A) (A) (A) (A) (A) (A) (A) (A) (A) (A) (A) (A)
                 (A) (A) (A) (A) (A) (A) (A) (A) (A) (A) (A) (A)
                 (A) (A) (A) (A) (A) (A) (A) (A) (A) (A) (A) (A)
                 (A) (A) (A) (A) (A) (A) (A) (A) (A) (A) (A) (A)
                 (A) (A) (A) (A) (A) (A) (A) (A) (A) (A) (A) (A)
                 (A) (A) (A) (A) (A) (A) (A) (A) (A) (A) (A) (A)
                 (A) (A) (A) (A) (A) (A) (A) (A) (A) (A) (A) (A)
                 (A) (A) (A) (A) (A) (A) (A) (A) (A) (A) (A) (A)
                 (A) (A) (A) (A) (A) (A) (A) (A) (A) (A) (A) (A)
                 (A) (A) (A) (A) (A) (A) (A) (A) (A) (A) (A) (A)
                 (A) (A)
 Generating guess from checkpoint file densities.
 Convergence on wavefunction:    0.000001000000000
 Iteration     1 Dimension     6 NMult     0 NNew      6
 CISAX will form     6 AO SS matrices at one time.
 Iteration     2 Dimension    12 NMult     6 NNew      6
 Iteration     3 Dimension    18 NMult    12 NNew      6
 Iteration     4 Dimension    24 NMult    18 NNew      6
 Iteration     5 Dimension    30 NMult    24 NNew      6
 Iteration     6 Dimension    36 NMult    30 NNew      6
 Iteration     7 Dimension    42 NMult    36 NNew      6
 Iteration     8 Dimension    48 NMult    42 NNew      6
 Iteration     9 Dimension    54 NMult    48 NNew      6
 Iteration    10 Dimension    60 NMult    54 NNew      6
 Iteration    11 Dimension    66 NMult    60 NNew      6
 Iteration    12 Dimension    68 NMult    66 NNew      2
 Iteration    13 Dimension    70 NMult    68 NNew      2
 Iteration    14 Dimension    72 NMult    70 NNew      2
 Iteration    15 Dimension    74 NMult    72 NNew      2
 Iteration    16 Dimension    76 NMult    74 NNew      2
 PCM Corrected Linear-Response:
 The state of interest is root number   1
 Excitation energy =    3.0546 eV, Total energy =  -967.756553017    
 Recompute the excitation energies using the linear response reaction field.
 Convergence on wavefunction:    0.000001000000000
 Iteration     1 Dimension     6 NMult     0 NNew      6
 Iteration     2 Dimension    12 NMult     6 NNew      6
 Iteration     3 Dimension    18 NMult    12 NNew      6
 Iteration     4 Dimension    24 NMult    18 NNew      6
 Iteration     5 Dimension    30 NMult    24 NNew      6
 Iteration     6 Dimension    36 NMult    30 NNew      6
 Iteration     7 Dimension    42 NMult    36 NNew      6
 Iteration     8 Dimension    48 NMult    42 NNew      6
 Iteration     9 Dimension    54 NMult    48 NNew      6
 Iteration    10 Dimension    60 NMult    54 NNew      6
 Iteration    11 Dimension    64 NMult    60 NNew      4
 Iteration    12 Dimension    66 NMult    64 NNew      2
 Iteration    13 Dimension    68 NMult    66 NNew      2
 Iteration    14 Dimension    70 NMult    68 NNew      2
 ***********************************************************************
 Excited states from <AA,BB:AA,BB> singles matrix:
 ***********************************************************************
 
 Ground to excited state transition densities written to RWF  633
 Ground to excited state transition electric dipole moments (Au):
       state          X           Y           Z        Dip. S.      Osc.
         1        -0.0673     -3.5131     -0.2478     12.4076      0.7787
         2        -2.7158      0.0529      0.0280      7.3792      0.5401
         3         0.0002     -0.8217     -0.0795      0.6816      0.0664
 Ground to excited state transition velocity dipole moments (Au):
       state          X           Y           Z        Dip. S.      Osc.
         1         0.0063      0.3290      0.0231      0.1088      0.7704
         2         0.2960     -0.0058     -0.0032      0.0877      0.5323
         3        -0.0000      0.1203      0.0116      0.0146      0.0666
 Ground to excited state transition magnetic dipole moments (Au):
       state          X           Y           Z
         1         0.0109      0.0167     -0.4459
         2        -0.0448      0.0083      0.0034
         3        -0.0115     -0.1646      1.4448
 Ground to excited state transition velocity quadrupole moments (Au):
       state          XX          YY          ZZ          XY          XZ          YZ
         1        -0.0165      0.0154     -0.0057      1.0391      0.0600     -0.0379
         2        -1.5594      0.7219     -0.0196     -0.0311     -0.0141      0.0879
         3         0.0091      0.0024     -0.0024     -0.2076     -0.0164     -0.0147
 <0|del|b> * <b|rxdel|0> + <0|del|b> * <b|delr+rdel|0>
 Rotatory Strengths (R) in cgs (10**-40 erg-esu-cm/Gauss)
       state          XX          YY          ZZ    R(velocity)    E-M Angle
         1        -1.9530   -129.5908     95.8551    -11.8962       91.85
         2        -0.1342     40.7513   -126.3442    -28.5757      169.90
         3        -8.3294     46.4799    -52.6927     -4.8474       90.98
 1/2[<0|r|b>*<b|rxdel|0> + (<0|rxdel|b>*<b|r|0>)*]
 Rotatory Strengths (R) in cgs (10**-40 erg-esu-cm/Gauss)
       state          XX          YY          ZZ     R(length)
         1         0.5172     41.4678    -78.1584    -12.0578
         2       -85.9657     -0.3114     -0.0676    -28.7815
         3         0.0012    -95.6586     81.2261     -4.8104
  1/2[<0|del|b>*<b|r|0> + (<0|r|b>*<b|del|0>)*] (Au)
       state          X           Y           Z        Dip. S.   Osc.(frdel)
         1        -0.0004     -1.1556     -0.0057      1.1618      0.7745
         2        -0.8039     -0.0003     -0.0001      0.8043      0.5362
         3        -0.0000     -0.0989     -0.0009      0.0998      0.0665

 Excitation energies and oscillator strengths:
 
 Excited State   1:      Singlet-A      2.5616 eV  484.00 nm  f=0.7787  <S**2>=0.000
      72 -> 74         0.68942
      73 -> 74         0.11974
 This state for optimization and/or second-order correction.
 Total Energy, E(TD-HF/TD-DFT) =  -967.774670181    
 Copying the excited state density for this state as the 1-particle RhoCI density.
 
 Excited State   2:      Singlet-A      2.9874 eV  415.02 nm  f=0.5401  <S**2>=0.000
      68 -> 74        -0.11057
      72 -> 74        -0.11757
      73 -> 74         0.67428
 
 Excited State   3:      Singlet-A      3.9774 eV  311.72 nm  f=0.0664  <S**2>=0.000
      70 -> 74         0.50528
      71 -> 74        -0.48563
 SavETr:  write IOETrn=   770 NScale= 10 NData=  16 NLR=1 NState=    3 LETran=      64.
 NEqPCM:  Using equilibrium solvation (IEInf=0, Eps=  24.8520, EpsInf=   1.8526)
          Differentiating once with respect to electric field.
                with respect to dipole field.
          Electric field/nuclear overlap derivatives assumed to be zero.
          There are     1 degrees of freedom in the 1st order CPHF.  IDoFFX=0 NUNeed=     1.
 LinEq1:  Iter=  0 NonCon=     1 RMS=1.94D-03 Max=2.00D-01 NDo=     1
 AX will form     1 AO Fock derivatives at one time.
 LinEq1:  Iter=  1 NonCon=     1 RMS=5.49D-04 Max=5.81D-02 NDo=     1
 LinEq1:  Iter=  2 NonCon=     1 RMS=3.33D-04 Max=2.81D-02 NDo=     1
 LinEq1:  Iter=  3 NonCon=     1 RMS=8.38D-05 Max=5.53D-03 NDo=     1
 LinEq1:  Iter=  4 NonCon=     1 RMS=4.30D-05 Max=2.85D-03 NDo=     1
 LinEq1:  Iter=  5 NonCon=     1 RMS=1.68D-05 Max=9.83D-04 NDo=     1
 LinEq1:  Iter=  6 NonCon=     1 RMS=8.59D-06 Max=5.47D-04 NDo=     1
 LinEq1:  Iter=  7 NonCon=     1 RMS=4.65D-06 Max=4.50D-04 NDo=     1
 LinEq1:  Iter=  8 NonCon=     1 RMS=2.33D-06 Max=1.53D-04 NDo=     1
 LinEq1:  Iter=  9 NonCon=     1 RMS=1.18D-06 Max=7.31D-05 NDo=     1
 LinEq1:  Iter= 10 NonCon=     1 RMS=3.80D-07 Max=2.76D-05 NDo=     1
 LinEq1:  Iter= 11 NonCon=     1 RMS=2.12D-07 Max=1.41D-05 NDo=     1
 LinEq1:  Iter= 12 NonCon=     1 RMS=7.25D-08 Max=6.95D-06 NDo=     1
 LinEq1:  Iter= 13 NonCon=     1 RMS=3.15D-08 Max=3.14D-06 NDo=     1
 LinEq1:  Iter= 14 NonCon=     1 RMS=1.69D-08 Max=1.51D-06 NDo=     1
 LinEq1:  Iter= 15 NonCon=     1 RMS=6.69D-09 Max=4.61D-07 NDo=     1
 LinEq1:  Iter= 16 NonCon=     1 RMS=2.56D-09 Max=1.01D-07 NDo=     1
 LinEq1:  Iter= 17 NonCon=     1 RMS=1.36D-09 Max=5.33D-08 NDo=     1
 LinEq1:  Iter= 18 NonCon=     1 RMS=4.90D-10 Max=2.10D-08 NDo=     1
 LinEq1:  Iter= 19 NonCon=     1 RMS=2.34D-10 Max=8.86D-09 NDo=     1
 LinEq1:  Iter= 20 NonCon=     1 RMS=9.71D-11 Max=3.15D-09 NDo=     1
 LinEq1:  Iter= 21 NonCon=     1 RMS=3.61D-11 Max=1.10D-09 NDo=     1
 LinEq1:  Iter= 22 NonCon=     0 RMS=1.92D-11 Max=9.93D-10 NDo=     1
 Linear equations converged to 1.000D-10 1.000D-09 after    22 iterations.
 PCM Corrected Linear-Response - Equilibrium solvation:
 Corrected transition energy               =    3.0260          eV
 Total energy after correction             = -967.757605705     a.u.
 NEqPCM:  Using non-equilibrium solvation (IEInf=1, Eps=  24.8520, EpsInf=   1.8526)
 Inv3:  Mode=1 IEnd=    19953723.
 Iteration    1 A*A^-1 deviation from unit magnitude is 4.44D-15 for   2559.
 Iteration    1 A*A^-1 deviation from orthogonality  is 5.22D-15 for   2556    582.
 Iteration    1 A^-1*A deviation from unit magnitude is 4.66D-15 for   2559.
 Iteration    1 A^-1*A deviation from orthogonality  is 3.16D-15 for   2567   1109.
 End of Minotr F.D. properties file   721 does not exist.
 End of Minotr F.D. properties file   722 does not exist.
 End of Minotr F.D. properties file   788 does not exist.

 **********************************************************************

            Population analysis using the CI Density.

 **********************************************************************

 Orbital symmetries:
       Occupied  (A) (A) (A) (A) (A) (A) (A) (A) (A) (A) (A) (A)
                 (A) (A) (A) (A) (A) (A) (A) (A) (A) (A) (A) (A)
                 (A) (A) (A) (A) (A) (A) (A) (A) (A) (A) (A) (A)
                 (A) (A) (A) (A) (A) (A) (A) (A) (A) (A) (A) (A)
                 (A) (A) (A) (A) (A) (A) (A) (A) (A) (A) (A) (A)
                 (A) (A) (A) (A) (A) (A) (A) (A) (A) (A) (A) (A)
                 (A)
       Virtual   (A) (A) (A) (A) (A) (A) (A) (A) (A) (A) (A) (A)
                 (A) (A) (A) (A) (A) (A) (A) (A) (A) (A) (A) (A)
                 (A) (A) (A) (A) (A) (A) (A) (A) (A) (A) (A) (A)
                 (A) (A) (A) (A) (A) (A) (A) (A) (A) (A) (A) (A)
                 (A) (A) (A) (A) (A) (A) (A) (A) (A) (A) (A) (A)
                 (A) (A) (A) (A) (A) (A) (A) (A) (A) (A) (A) (A)
                 (A) (A) (A) (A) (A) (A) (A) (A) (A) (A) (A) (A)
                 (A) (A) (A) (A) (A) (A) (A) (A) (A) (A) (A) (A)
                 (A) (A) (A) (A) (A) (A) (A) (A) (A) (A) (A) (A)
                 (A) (A) (A) (A) (A) (A) (A) (A) (A) (A) (A) (A)
                 (A) (A) (A) (A) (A) (A) (A) (A) (A) (A) (A) (A)
                 (A) (A) (A) (A) (A) (A) (A) (A) (A) (A) (A) (A)
                 (A) (A) (A) (A) (A) (A) (A) (A) (A) (A) (A) (A)
                 (A) (A) (A) (A) (A) (A) (A) (A) (A) (A) (A) (A)
                 (A) (A) (A) (A) (A) (A) (A) (A) (A) (A) (A) (A)
                 (A) (A) (A) (A) (A) (A) (A) (A) (A) (A) (A) (A)
                 (A) (A) (A) (A) (A) (A) (A) (A) (A) (A) (A) (A)
                 (A) (A) (A) (A) (A) (A) (A) (A) (A) (A) (A) (A)
                 (A) (A) (A) (A) (A) (A) (A) (A) (A) (A) (A) (A)
                 (A) (A) (A) (A) (A) (A) (A) (A) (A) (A) (A) (A)
                 (A) (A) (A) (A) (A) (A) (A) (A) (A) (A) (A) (A)
                 (A) (A) (A) (A) (A) (A) (A) (A) (A) (A) (A) (A)
                 (A) (A) (A) (A) (A) (A) (A) (A) (A) (A) (A) (A)
                 (A) (A) (A) (A) (A) (A) (A) (A) (A) (A) (A) (A)
                 (A) (A) (A) (A) (A) (A) (A) (A) (A) (A) (A) (A)
                 (A) (A) (A) (A) (A) (A) (A) (A) (A) (A) (A) (A)
                 (A) (A) (A) (A) (A) (A) (A) (A) (A) (A) (A) (A)
                 (A) (A) (A) (A) (A) (A) (A) (A) (A) (A) (A) (A)
                 (A) (A) (A) (A) (A) (A) (A) (A) (A) (A) (A) (A)
                 (A) (A) (A) (A) (A) (A) (A) (A) (A) (A) (A) (A)
                 (A) (A) (A) (A) (A) (A) (A) (A) (A) (A) (A) (A)
                 (A) (A) (A) (A) (A) (A) (A) (A) (A) (A) (A) (A)
                 (A) (A) (A) (A) (A) (A) (A) (A) (A) (A) (A) (A)
                 (A) (A) (A) (A) (A) (A) (A) (A) (A) (A) (A) (A)
                 (A) (A) (A) (A) (A) (A) (A) (A) (A) (A) (A) (A)
                 (A) (A) (A) (A) (A) (A) (A) (A) (A) (A) (A) (A)
                 (A) (A) (A) (A) (A) (A) (A) (A) (A) (A) (A) (A)
                 (A) (A) (A) (A) (A) (A) (A) (A) (A) (A) (A) (A)
                 (A) (A) (A) (A) (A) (A) (A) (A) (A) (A) (A) (A)
                 (A) (A) (A) (A) (A) (A) (A) (A) (A) (A) (A) (A)
                 (A) (A) (A) (A) (A) (A) (A) (A) (A) (A) (A) (A)
                 (A) (A) (A) (A) (A) (A) (A) (A) (A) (A) (A) (A)
                 (A) (A) (A) (A) (A) (A) (A) (A) (A) (A) (A) (A)
                 (A) (A) (A) (A) (A) (A) (A) (A) (A) (A) (A) (A)
                 (A) (A) (A) (A) (A) (A) (A) (A) (A) (A) (A) (A)
                 (A) (A) (A) (A) (A) (A) (A) (A) (A) (A) (A) (A)
                 (A) (A) (A) (A) (A) (A) (A) (A) (A) (A) (A) (A)
                 (A) (A) (A) (A) (A) (A) (A) (A) (A) (A) (A) (A)
                 (A) (A) (A) (A) (A) (A) (A) (A) (A) (A) (A) (A)
                 (A) (A) (A) (A) (A) (A) (A) (A) (A) (A) (A) (A)
                 (A) (A) (A) (A) (A) (A) (A) (A) (A) (A) (A) (A)
                 (A) (A) (A) (A) (A) (A) (A) (A) (A) (A) (A) (A)
                 (A) (A) (A) (A) (A) (A) (A) (A) (A) (A) (A) (A)
                 (A) (A) (A) (A) (A) (A) (A) (A) (A) (A) (A) (A)
                 (A) (A)
 The electronic state is 1-A.
 Alpha  occ. eigenvalues --  -24.76605 -24.76502 -14.47322 -14.47310 -14.43869
 Alpha  occ. eigenvalues --  -10.35836 -10.34089 -10.33309 -10.33294 -10.33084
 Alpha  occ. eigenvalues --  -10.33058 -10.30460 -10.30155 -10.30133 -10.30033
 Alpha  occ. eigenvalues --  -10.30026 -10.28722 -10.28704 -10.28700 -10.28696
 Alpha  occ. eigenvalues --   -6.92869  -1.28103  -1.24813  -1.09718  -1.07828
 Alpha  occ. eigenvalues --   -1.02623  -0.96379  -0.91377  -0.89320  -0.87897
 Alpha  occ. eigenvalues --   -0.85166  -0.83212  -0.82352  -0.76151  -0.71575
 Alpha  occ. eigenvalues --   -0.70464  -0.70209  -0.67325  -0.67183  -0.66767
 Alpha  occ. eigenvalues --   -0.63028  -0.61886  -0.60452  -0.60088  -0.59599
 Alpha  occ. eigenvalues --   -0.58213  -0.55626  -0.54009  -0.53185  -0.53034
 Alpha  occ. eigenvalues --   -0.52563  -0.52162  -0.51502  -0.51182  -0.50415
 Alpha  occ. eigenvalues --   -0.49705  -0.48780  -0.48411  -0.47606  -0.47367
 Alpha  occ. eigenvalues --   -0.46894  -0.46427  -0.46016  -0.45058  -0.43496
 Alpha  occ. eigenvalues --   -0.42631  -0.41424  -0.37389  -0.35046  -0.34290
 Alpha  occ. eigenvalues --   -0.33887  -0.28577  -0.28372
 Alpha virt. eigenvalues --   -0.05092   0.05036   0.06244   0.08898   0.10577
 Alpha virt. eigenvalues --    0.12463   0.12812   0.13181   0.14544   0.14970
 Alpha virt. eigenvalues --    0.15361   0.15889   0.16410   0.16500   0.17455
 Alpha virt. eigenvalues --    0.17724   0.18105   0.18407   0.19311   0.20497
 Alpha virt. eigenvalues --    0.20866   0.21176   0.22180   0.23072   0.23842
 Alpha virt. eigenvalues --    0.23941   0.24575   0.25199   0.26011   0.26908
 Alpha virt. eigenvalues --    0.27164   0.27451   0.27587   0.28639   0.28885
 Alpha virt. eigenvalues --    0.29724   0.30449   0.30672   0.30899   0.31738
 Alpha virt. eigenvalues --    0.32392   0.33369   0.34099   0.34289   0.34607
 Alpha virt. eigenvalues --    0.35386   0.36263   0.36659   0.37335   0.37574
 Alpha virt. eigenvalues --    0.38085   0.38158   0.38689   0.39203   0.39758
 Alpha virt. eigenvalues --    0.39869   0.39958   0.40847   0.41570   0.42206
 Alpha virt. eigenvalues --    0.42452   0.42812   0.43507   0.43641   0.44572
 Alpha virt. eigenvalues --    0.44794   0.45262   0.45713   0.46128   0.46425
 Alpha virt. eigenvalues --    0.46901   0.48160   0.48295   0.48506   0.49030
 Alpha virt. eigenvalues --    0.49861   0.49973   0.50274   0.51338   0.51433
 Alpha virt. eigenvalues --    0.51805   0.52401   0.52827   0.53347   0.53746
 Alpha virt. eigenvalues --    0.53923   0.54652   0.55195   0.55721   0.55884
 Alpha virt. eigenvalues --    0.56391   0.57902   0.58347   0.58695   0.59451
 Alpha virt. eigenvalues --    0.59580   0.59973   0.61222   0.61851   0.62120
 Alpha virt. eigenvalues --    0.63589   0.63836   0.64371   0.65136   0.65683
 Alpha virt. eigenvalues --    0.66926   0.67155   0.67942   0.68534   0.69034
 Alpha virt. eigenvalues --    0.69740   0.70593   0.71048   0.71284   0.73104
 Alpha virt. eigenvalues --    0.73516   0.73676   0.74048   0.74561   0.75274
 Alpha virt. eigenvalues --    0.77090   0.77494   0.77851   0.78295   0.78553
 Alpha virt. eigenvalues --    0.79176   0.79505   0.79725   0.80721   0.81013
 Alpha virt. eigenvalues --    0.81617   0.82442   0.82846   0.83129   0.84490
 Alpha virt. eigenvalues --    0.84814   0.85267   0.85958   0.86694   0.87826
 Alpha virt. eigenvalues --    0.88720   0.90265   0.90446   0.91026   0.91426
 Alpha virt. eigenvalues --    0.92152   0.93197   0.93327   0.94391   0.94974
 Alpha virt. eigenvalues --    0.95806   0.96097   0.96547   0.99382   1.01206
 Alpha virt. eigenvalues --    1.01921   1.02543   1.03033   1.03476   1.04337
 Alpha virt. eigenvalues --    1.04784   1.05216   1.06204   1.06279   1.06980
 Alpha virt. eigenvalues --    1.07148   1.08464   1.10663   1.11561   1.12074
 Alpha virt. eigenvalues --    1.13594   1.14098   1.15078   1.16278   1.16859
 Alpha virt. eigenvalues --    1.17813   1.18413   1.19502   1.20694   1.21684
 Alpha virt. eigenvalues --    1.22077   1.22702   1.23097   1.24684   1.25471
 Alpha virt. eigenvalues --    1.26756   1.27732   1.28322   1.28843   1.29683
 Alpha virt. eigenvalues --    1.31050   1.31540   1.32201   1.34150   1.34562
 Alpha virt. eigenvalues --    1.34805   1.35809   1.36123   1.37674   1.38070
 Alpha virt. eigenvalues --    1.38919   1.40356   1.41249   1.42673   1.43230
 Alpha virt. eigenvalues --    1.44854   1.45693   1.46486   1.46682   1.47750
 Alpha virt. eigenvalues --    1.47970   1.48305   1.48548   1.49343   1.52308
 Alpha virt. eigenvalues --    1.52651   1.53960   1.55577   1.56057   1.56242
 Alpha virt. eigenvalues --    1.57003   1.57317   1.57954   1.58776   1.59726
 Alpha virt. eigenvalues --    1.60053   1.61409   1.62610   1.63347   1.63746
 Alpha virt. eigenvalues --    1.64702   1.65009   1.65252   1.67513   1.67879
 Alpha virt. eigenvalues --    1.69150   1.69539   1.69579   1.70500   1.71332
 Alpha virt. eigenvalues --    1.72250   1.72842   1.73356   1.74035   1.75100
 Alpha virt. eigenvalues --    1.75949   1.76831   1.77523   1.78231   1.79006
 Alpha virt. eigenvalues --    1.79860   1.80257   1.82647   1.83197   1.84389
 Alpha virt. eigenvalues --    1.84785   1.85315   1.85858   1.88463   1.88467
 Alpha virt. eigenvalues --    1.89490   1.90422   1.90522   1.91352   1.91944
 Alpha virt. eigenvalues --    1.93425   1.94442   1.95810   1.96110   1.98815
 Alpha virt. eigenvalues --    1.99530   2.00572   2.01076   2.01471   2.02485
 Alpha virt. eigenvalues --    2.03882   2.04469   2.05636   2.07659   2.09090
 Alpha virt. eigenvalues --    2.10302   2.10535   2.11591   2.14426   2.15278
 Alpha virt. eigenvalues --    2.16387   2.16941   2.17719   2.18512   2.19418
 Alpha virt. eigenvalues --    2.20173   2.20726   2.21599   2.22059   2.24505
 Alpha virt. eigenvalues --    2.24999   2.25493   2.27205   2.27761   2.29083
 Alpha virt. eigenvalues --    2.29275   2.30485   2.31358   2.31910   2.32532
 Alpha virt. eigenvalues --    2.33114   2.35633   2.35821   2.36235   2.37004
 Alpha virt. eigenvalues --    2.38156   2.38954   2.40963   2.41711   2.44422
 Alpha virt. eigenvalues --    2.45113   2.45402   2.45902   2.46726   2.48031
 Alpha virt. eigenvalues --    2.49158   2.49992   2.52323   2.56150   2.56794
 Alpha virt. eigenvalues --    2.57711   2.58618   2.59184   2.60642   2.61217
 Alpha virt. eigenvalues --    2.61721   2.62759   2.63997   2.64352   2.65598
 Alpha virt. eigenvalues --    2.67093   2.67323   2.67681   2.68194   2.69388
 Alpha virt. eigenvalues --    2.70472   2.70702   2.70787   2.71267   2.72442
 Alpha virt. eigenvalues --    2.73657   2.74999   2.75377   2.76203   2.76547
 Alpha virt. eigenvalues --    2.77072   2.77211   2.77673   2.79326   2.79956
 Alpha virt. eigenvalues --    2.80298   2.81528   2.82247   2.82758   2.83559
 Alpha virt. eigenvalues --    2.85218   2.85608   2.86432   2.86669   2.87159
 Alpha virt. eigenvalues --    2.87822   2.88402   2.89764   2.90715   2.91161
 Alpha virt. eigenvalues --    2.92828   2.93346   2.93802   2.94122   2.94752
 Alpha virt. eigenvalues --    2.96407   2.97159   2.97804   2.99323   2.99618
 Alpha virt. eigenvalues --    3.00005   3.00487   3.01753   3.02314   3.03528
 Alpha virt. eigenvalues --    3.03701   3.05991   3.06181   3.06799   3.08040
 Alpha virt. eigenvalues --    3.08374   3.08727   3.09158   3.09827   3.10482
 Alpha virt. eigenvalues --    3.12521   3.12761   3.13647   3.14833   3.16353
 Alpha virt. eigenvalues --    3.16579   3.16990   3.17577   3.17883   3.18748
 Alpha virt. eigenvalues --    3.19151   3.20184   3.20420   3.21359   3.22206
 Alpha virt. eigenvalues --    3.22706   3.23632   3.24078   3.24533   3.26753
 Alpha virt. eigenvalues --    3.26866   3.27829   3.28711   3.29187   3.29871
 Alpha virt. eigenvalues --    3.30559   3.30926   3.31055   3.31692   3.33799
 Alpha virt. eigenvalues --    3.34528   3.35183   3.36158   3.36952   3.37309
 Alpha virt. eigenvalues --    3.38402   3.39415   3.39593   3.39989   3.40317
 Alpha virt. eigenvalues --    3.41240   3.41960   3.42938   3.44253   3.44591
 Alpha virt. eigenvalues --    3.45285   3.46371   3.47181   3.48653   3.49335
 Alpha virt. eigenvalues --    3.50739   3.51223   3.51732   3.51919   3.52812
 Alpha virt. eigenvalues --    3.54061   3.54564   3.55017   3.55422   3.57224
 Alpha virt. eigenvalues --    3.58057   3.58410   3.59088   3.59620   3.60903
 Alpha virt. eigenvalues --    3.61445   3.62275   3.63116   3.63289   3.64062
 Alpha virt. eigenvalues --    3.65286   3.65880   3.68042   3.68397   3.69911
 Alpha virt. eigenvalues --    3.71086   3.71552   3.72319   3.74785   3.76407
 Alpha virt. eigenvalues --    3.78312   3.78658   3.79998   3.80958   3.82002
 Alpha virt. eigenvalues --    3.83599   3.85736   3.87734   3.88322   3.89268
 Alpha virt. eigenvalues --    3.89903   3.91057   3.92089   3.92803   3.95628
 Alpha virt. eigenvalues --    3.96491   4.00988   4.01873   4.03801   4.04899
 Alpha virt. eigenvalues --    4.05797   4.07366   4.09109   4.11541   4.11870
 Alpha virt. eigenvalues --    4.13051   4.13408   4.14930   4.16398   4.16599
 Alpha virt. eigenvalues --    4.17175   4.17985   4.20428   4.21589   4.22412
 Alpha virt. eigenvalues --    4.23891   4.24164   4.25069   4.27884   4.29204
 Alpha virt. eigenvalues --    4.30004   4.30410   4.32261   4.33150   4.34084
 Alpha virt. eigenvalues --    4.34733   4.35842   4.36452   4.36845   4.38730
 Alpha virt. eigenvalues --    4.39166   4.40225   4.40752   4.41971   4.42390
 Alpha virt. eigenvalues --    4.45992   4.47844   4.49761   4.51116   4.54836
 Alpha virt. eigenvalues --    4.56900   4.60753   4.62161   4.63410   4.64179
 Alpha virt. eigenvalues --    4.65962   4.68516   4.69831   4.74518   4.74823
 Alpha virt. eigenvalues --    4.76148   4.79278   4.83248   4.84389   4.85405
 Alpha virt. eigenvalues --    4.87036   4.88755   4.89591   4.90184   4.90425
 Alpha virt. eigenvalues --    4.91808   4.92212   4.95132   4.97486   4.99232
 Alpha virt. eigenvalues --    4.99252   5.00525   5.01582   5.04454   5.06020
 Alpha virt. eigenvalues --    5.08673   5.09306   5.12628   5.13253   5.15528
 Alpha virt. eigenvalues --    5.19598   5.20291   5.22573   5.23934   5.25414
 Alpha virt. eigenvalues --    5.27431   5.28371   5.34269   5.34974   5.37748
 Alpha virt. eigenvalues --    5.40750   5.40911   5.43358   5.44299   5.45176
 Alpha virt. eigenvalues --    5.47405   5.51004   5.52873   5.55668   5.57566
 Alpha virt. eigenvalues --    5.60495   5.64784   5.70260   5.71410   5.72308
 Alpha virt. eigenvalues --    5.88515   5.91035   5.93768   5.96923   5.99743
 Alpha virt. eigenvalues --    6.01992   6.05319   6.05579   6.11524   6.28730
 Alpha virt. eigenvalues --    6.98445   6.98583   7.01213   7.01404   7.04572
 Alpha virt. eigenvalues --    7.04814   7.10843   7.18059   7.23121   7.28726
 Alpha virt. eigenvalues --    7.30796   7.33118   7.42036   7.42808   8.50178
 Alpha virt. eigenvalues --    8.52634   8.62866   8.64917   8.90406   8.93973
 Alpha virt. eigenvalues --    8.97058   8.99339   9.00360   9.09091  15.93148
 Alpha virt. eigenvalues --   22.37753  22.47718  22.50017  22.74079  22.75313
 Alpha virt. eigenvalues --   22.79294  22.82144  22.85370  22.86209  22.89186
 Alpha virt. eigenvalues --   23.01615  23.10743  23.26352  23.35579  23.61089
 Alpha virt. eigenvalues --   32.16947  33.02082  33.05616  57.14338  57.37938
          Condensed to atoms (all electrons):
               1          2          3          4          5          6
     1  C    5.468477   0.014362   0.116504   0.379548  -0.026762  -0.180558
     2  C    0.014362   5.475723   0.107710   0.027451  -0.000689  -0.002235
     3  C    0.116504   0.107710   5.924061  -0.129041   0.014530  -0.001065
     4  C    0.379548   0.027451  -0.129041   5.278654   0.440168  -0.010883
     5  C   -0.026762  -0.000689   0.014530   0.440168   5.012391   0.446256
     6  C   -0.180558  -0.002235  -0.001065  -0.010883   0.446256   5.083722
     7  H    0.008621   0.000008  -0.000302  -0.041486   0.439106  -0.040345
     8  C   -0.003553  -0.180448   0.001769  -0.000128   0.000095  -0.000176
     9  C    0.024853   0.378996  -0.122847   0.000022  -0.000000  -0.000093
    10  C    0.000175  -0.030350   0.010593   0.000014  -0.000002   0.000088
    11  H    0.000012   0.008656  -0.000313  -0.000000   0.000000  -0.000000
    12  N    0.386285  -0.010070  -0.029951  -0.091394  -0.081344   0.416473
    13  N   -0.010336   0.383717  -0.028429   0.000240  -0.000414  -0.000287
    14  B   -0.076587  -0.077104  -0.000210   0.007760  -0.009153  -0.022402
    15  F   -0.007708  -0.007641   0.004708   0.000322  -0.000368  -0.003129
    16  F   -0.008144  -0.008685   0.003601   0.000306  -0.000194  -0.000768
    17  C   -0.258575  -0.257065   0.350419  -0.036774   0.000726  -0.002860
    18  C    0.016244   0.009356  -0.130297   0.001945  -0.000264   0.000145
    19  C    0.018348   0.010754  -0.136341   0.004382   0.000673   0.000143
    20  C   -0.005295  -0.000181  -0.001728   0.000169   0.000004  -0.000007
    21  H    0.001056   0.001243   0.000906   0.000109  -0.000005  -0.000000
    22  C   -0.002368  -0.002981  -0.000145   0.000220   0.000045  -0.000013
    23  H    0.001903   0.000891  -0.001022  -0.000979   0.000169  -0.000016
    24  C    0.003060   0.000352  -0.005691  -0.000669  -0.000029   0.000008
    25  H   -0.000010   0.000129  -0.000181   0.000010  -0.000000  -0.000000
    26  H   -0.000008   0.000039  -0.000098   0.000022  -0.000005   0.000000
    27  H   -0.000643  -0.040593  -0.005857  -0.000024   0.000002  -0.000002
    28  H    0.000143   0.002723  -0.001069  -0.000004   0.000002  -0.000015
    29  H   -0.040423  -0.000669  -0.007506   0.435617  -0.029774   0.006581
    30  H    0.002757   0.000158  -0.001094   0.008400  -0.033262   0.420078
    31  N    0.000018  -0.000036  -0.000019   0.000003   0.000000   0.000000
    32  H    0.000002  -0.000001  -0.000004  -0.000001  -0.000000   0.000000
    33  H    0.000002  -0.000001   0.000001  -0.000000  -0.000000   0.000000
               7          8          9         10         11         12
     1  C    0.008621  -0.003553   0.024853   0.000175   0.000012   0.386285
     2  C    0.000008  -0.180448   0.378996  -0.030350   0.008656  -0.010070
     3  C   -0.000302   0.001769  -0.122847   0.010593  -0.000313  -0.029951
     4  C   -0.041486  -0.000128   0.000022   0.000014  -0.000000  -0.091394
     5  C    0.439106   0.000095  -0.000000  -0.000002   0.000000  -0.081344
     6  C   -0.040345  -0.000176  -0.000093   0.000088  -0.000000   0.416473
     7  H    0.449087  -0.000000  -0.000000   0.000000  -0.000000   0.003591
     8  C   -0.000000   5.081611  -0.011965   0.446363  -0.040272   0.000024
     9  C   -0.000000  -0.011965   5.277728   0.448147  -0.041505   0.000525
    10  C    0.000000   0.446363   0.448147   5.005802   0.438793  -0.000530
    11  H   -0.000000  -0.040272  -0.041505   0.438793   0.448813   0.000006
    12  N    0.003591   0.000024   0.000525  -0.000530   0.000006   6.225611
    13  N    0.000006   0.416664  -0.090184  -0.080860   0.003563  -0.028442
    14  B   -0.000043  -0.021560   0.007296  -0.009041  -0.000045   0.335000
    15  F    0.000003  -0.003377   0.000329  -0.000703   0.000004  -0.042723
    16  F    0.000000  -0.000561   0.000225   0.000129   0.000001  -0.041141
    17  C    0.000004  -0.002613  -0.037517   0.000604   0.000001   0.011293
    18  C    0.000001   0.000012   0.005715   0.000612   0.000005  -0.000303
    19  C    0.000007   0.000078   0.002057  -0.000107   0.000002  -0.000274
    20  C   -0.000000  -0.000011  -0.000054   0.000025   0.000001   0.000014
    21  H    0.000000   0.000005  -0.000893   0.000158   0.000005  -0.000017
    22  C    0.000001  -0.000001  -0.000159  -0.000009  -0.000000  -0.000021
    23  H    0.000006  -0.000003   0.000077  -0.000001   0.000000  -0.000104
    24  C    0.000000   0.000001  -0.000090  -0.000004   0.000000   0.000001
    25  H   -0.000000   0.000001  -0.000007  -0.000009  -0.000000  -0.000000
    26  H   -0.000000   0.000000   0.000002  -0.000000  -0.000000   0.000001
    27  H   -0.000000   0.006259   0.433752  -0.027982  -0.002486   0.000030
    28  H   -0.000000   0.419894   0.008370  -0.033181  -0.001545   0.000049
    29  H   -0.002521  -0.000003  -0.000015   0.000002  -0.000000   0.003286
    30  H   -0.001542  -0.000017  -0.000005   0.000002  -0.000000  -0.026361
    31  N    0.000000  -0.000000   0.000016   0.000000   0.000000   0.000000
    32  H   -0.000000  -0.000000   0.000000   0.000000   0.000000   0.000000
    33  H    0.000000  -0.000000   0.000001   0.000000   0.000000   0.000000
              13         14         15         16         17         18
     1  C   -0.010336  -0.076587  -0.007708  -0.008144  -0.258575   0.016244
     2  C    0.383717  -0.077104  -0.007641  -0.008685  -0.257065   0.009356
     3  C   -0.028429  -0.000210   0.004708   0.003601   0.350419  -0.130297
     4  C    0.000240   0.007760   0.000322   0.000306  -0.036774   0.001945
     5  C   -0.000414  -0.009153  -0.000368  -0.000194   0.000726  -0.000264
     6  C   -0.000287  -0.022402  -0.003129  -0.000768  -0.002860   0.000145
     7  H    0.000006  -0.000043   0.000003   0.000000   0.000004   0.000001
     8  C    0.416664  -0.021560  -0.003377  -0.000561  -0.002613   0.000012
     9  C   -0.090184   0.007296   0.000329   0.000225  -0.037517   0.005715
    10  C   -0.080860  -0.009041  -0.000703   0.000129   0.000604   0.000612
    11  H    0.003563  -0.000045   0.000004   0.000001   0.000001   0.000005
    12  N   -0.028442   0.335000  -0.042723  -0.041141   0.011293  -0.000303
    13  N    6.227540   0.335986  -0.043440  -0.039700   0.011131  -0.000016
    14  B    0.335986   3.408698   0.379103   0.372220   0.012267   0.000086
    15  F   -0.043440   0.379103   9.123089  -0.032470   0.000214  -0.000003
    16  F   -0.039700   0.372220  -0.032470   9.119435   0.000098   0.000004
    17  C    0.011131   0.012267   0.000214   0.000098   5.603487   0.363991
    18  C   -0.000016   0.000086  -0.000003   0.000004   0.363991   5.215534
    19  C   -0.000438  -0.000252   0.000003  -0.000003   0.367173   0.017314
    20  C   -0.000012   0.000017   0.000000   0.000000   0.005354   0.422090
    21  H   -0.000142  -0.000013  -0.000000  -0.000000  -0.068477   0.455112
    22  C    0.000010   0.000023   0.000000   0.000000   0.004107  -0.059194
    23  H   -0.000010  -0.000014  -0.000000  -0.000000  -0.068988   0.010928
    24  C    0.000000   0.000003   0.000000   0.000000  -0.087838   0.029893
    25  H    0.000001   0.000001   0.000000  -0.000000   0.010745  -0.039325
    26  H   -0.000000   0.000001   0.000000   0.000000   0.010838  -0.003074
    27  H    0.003222   0.000542   0.000006   0.000004   0.001966  -0.004547
    28  H   -0.026301  -0.001173  -0.000275   0.000889  -0.000021   0.000001
    29  H    0.000029   0.000544   0.000004   0.000007   0.002490  -0.000151
    30  H    0.000056  -0.001321  -0.000515   0.001335  -0.000025  -0.000000
    31  N   -0.000000   0.000000   0.000000   0.000000   0.003193  -0.001645
    32  H   -0.000000   0.000000   0.000000   0.000000  -0.000039  -0.000659
    33  H    0.000000   0.000000  -0.000000   0.000000  -0.000016   0.001282
              19         20         21         22         23         24
     1  C    0.018348  -0.005295   0.001056  -0.002368   0.001903   0.003060
     2  C    0.010754  -0.000181   0.001243  -0.002981   0.000891   0.000352
     3  C   -0.136341  -0.001728   0.000906  -0.000145  -0.001022  -0.005691
     4  C    0.004382   0.000169   0.000109   0.000220  -0.000979  -0.000669
     5  C    0.000673   0.000004  -0.000005   0.000045   0.000169  -0.000029
     6  C    0.000143  -0.000007  -0.000000  -0.000013  -0.000016   0.000008
     7  H    0.000007  -0.000000   0.000000   0.000001   0.000006   0.000000
     8  C    0.000078  -0.000011   0.000005  -0.000001  -0.000003   0.000001
     9  C    0.002057  -0.000054  -0.000893  -0.000159   0.000077  -0.000090
    10  C   -0.000107   0.000025   0.000158  -0.000009  -0.000001  -0.000004
    11  H    0.000002   0.000001   0.000005  -0.000000   0.000000   0.000000
    12  N   -0.000274   0.000014  -0.000017  -0.000021  -0.000104   0.000001
    13  N   -0.000438  -0.000012  -0.000142   0.000010  -0.000010   0.000000
    14  B   -0.000252   0.000017  -0.000013   0.000023  -0.000014   0.000003
    15  F    0.000003   0.000000  -0.000000   0.000000  -0.000000   0.000000
    16  F   -0.000003   0.000000  -0.000000   0.000000  -0.000000   0.000000
    17  C    0.367173   0.005354  -0.068477   0.004107  -0.068988  -0.087838
    18  C    0.017314   0.422090   0.455112  -0.059194   0.010928   0.029893
    19  C    5.219519  -0.058547   0.009990   0.420302   0.457882   0.028823
    20  C   -0.058547   5.142535  -0.044866   0.032489  -0.003817   0.387822
    21  H    0.009990  -0.044866   0.463494  -0.003543  -0.000052   0.010659
    22  C    0.420302   0.032489  -0.003543   5.139391  -0.047401   0.390835
    23  H    0.457882  -0.003817  -0.000052  -0.047401   0.467195   0.011156
    24  C    0.028823   0.387822   0.010659   0.390835   0.011156   4.800797
    25  H   -0.002999   0.443602  -0.006394   0.008794   0.000008  -0.056636
    26  H   -0.039355   0.008868   0.000008   0.443288  -0.006527  -0.056376
    27  H   -0.000352   0.001265  -0.002940   0.000143   0.000003  -0.000227
    28  H   -0.000000  -0.000000   0.000001  -0.000000  -0.000000   0.000000
    29  H   -0.005140   0.000091   0.000005   0.001165  -0.002496  -0.000064
    30  H    0.000002  -0.000000  -0.000000  -0.000000   0.000000   0.000000
    31  N   -0.002027  -0.055652  -0.000130  -0.054430  -0.000136   0.348384
    32  H    0.001134   0.003985   0.000013  -0.005452  -0.000023  -0.030774
    33  H   -0.000726  -0.005673  -0.000025   0.003974   0.000012  -0.030469
              25         26         27         28         29         30
     1  C   -0.000010  -0.000008  -0.000643   0.000143  -0.040423   0.002757
     2  C    0.000129   0.000039  -0.040593   0.002723  -0.000669   0.000158
     3  C   -0.000181  -0.000098  -0.005857  -0.001069  -0.007506  -0.001094
     4  C    0.000010   0.000022  -0.000024  -0.000004   0.435617   0.008400
     5  C   -0.000000  -0.000005   0.000002   0.000002  -0.029774  -0.033262
     6  C   -0.000000   0.000000  -0.000002  -0.000015   0.006581   0.420078
     7  H   -0.000000  -0.000000  -0.000000  -0.000000  -0.002521  -0.001542
     8  C    0.000001   0.000000   0.006259   0.419894  -0.000003  -0.000017
     9  C   -0.000007   0.000002   0.433752   0.008370  -0.000015  -0.000005
    10  C   -0.000009  -0.000000  -0.027982  -0.033181   0.000002   0.000002
    11  H   -0.000000  -0.000000  -0.002486  -0.001545  -0.000000  -0.000000
    12  N   -0.000000   0.000001   0.000030   0.000049   0.003286  -0.026361
    13  N    0.000001  -0.000000   0.003222  -0.026301   0.000029   0.000056
    14  B    0.000001   0.000001   0.000542  -0.001173   0.000544  -0.001321
    15  F    0.000000   0.000000   0.000006  -0.000275   0.000004  -0.000515
    16  F   -0.000000   0.000000   0.000004   0.000889   0.000007   0.001335
    17  C    0.010745   0.010838   0.001966  -0.000021   0.002490  -0.000025
    18  C   -0.039325  -0.003074  -0.004547   0.000001  -0.000151  -0.000000
    19  C   -0.002999  -0.039355  -0.000352  -0.000000  -0.005140   0.000002
    20  C    0.443602   0.008868   0.001265  -0.000000   0.000091  -0.000000
    21  H   -0.006394   0.000008  -0.002940   0.000001   0.000005  -0.000000
    22  C    0.008794   0.443288   0.000143  -0.000000   0.001165  -0.000000
    23  H    0.000008  -0.006527   0.000003  -0.000000  -0.002496   0.000000
    24  C   -0.056636  -0.056376  -0.000227   0.000000  -0.000064   0.000000
    25  H    0.478654  -0.000109   0.000097  -0.000000   0.000000  -0.000000
    26  H   -0.000109   0.478660   0.000002  -0.000000   0.000070  -0.000000
    27  H    0.000097   0.000002   0.430365  -0.000019  -0.000002  -0.000000
    28  H   -0.000000  -0.000000  -0.000019   0.423305  -0.000000  -0.000001
    29  H    0.000000   0.000070  -0.000002  -0.000000   0.432669  -0.000020
    30  H   -0.000000  -0.000000  -0.000000  -0.000001  -0.000020   0.423853
    31  N    0.000533   0.000587  -0.000011  -0.000000  -0.000007  -0.000000
    32  H   -0.000187   0.002313  -0.000000   0.000000   0.000001  -0.000000
    33  H    0.002154  -0.000169  -0.000001  -0.000000   0.000000   0.000000
              31         32         33
     1  C    0.000018   0.000002   0.000002
     2  C   -0.000036  -0.000001  -0.000001
     3  C   -0.000019  -0.000004   0.000001
     4  C    0.000003  -0.000001  -0.000000
     5  C    0.000000  -0.000000  -0.000000
     6  C    0.000000   0.000000   0.000000
     7  H    0.000000  -0.000000   0.000000
     8  C   -0.000000  -0.000000  -0.000000
     9  C    0.000016   0.000000   0.000001
    10  C    0.000000   0.000000   0.000000
    11  H    0.000000   0.000000   0.000000
    12  N    0.000000   0.000000   0.000000
    13  N   -0.000000  -0.000000   0.000000
    14  B    0.000000   0.000000   0.000000
    15  F    0.000000   0.000000  -0.000000
    16  F    0.000000   0.000000   0.000000
    17  C    0.003193  -0.000039  -0.000016
    18  C   -0.001645  -0.000659   0.001282
    19  C   -0.002027   0.001134  -0.000726
    20  C   -0.055652   0.003985  -0.005673
    21  H   -0.000130   0.000013  -0.000025
    22  C   -0.054430  -0.005452   0.003974
    23  H   -0.000136  -0.000023   0.000012
    24  C    0.348384  -0.030774  -0.030469
    25  H    0.000533  -0.000187   0.002154
    26  H    0.000587   0.002313  -0.000169
    27  H   -0.000011  -0.000000  -0.000001
    28  H   -0.000000   0.000000  -0.000000
    29  H   -0.000007   0.000001   0.000000
    30  H   -0.000000  -0.000000   0.000000
    31  N    6.539179   0.375077   0.374899
    32  H    0.375077   0.382084  -0.022381
    33  H    0.374899  -0.022381   0.382083
 Mulliken charges:
               1
     1  C    0.178601
     2  C    0.196482
     3  C    0.068408
     4  C   -0.273978
     5  C   -0.171900
     6  C   -0.108640
     7  H    0.185798
     8  C   -0.108089
     9  C   -0.282775
    10  C   -0.168730
    11  H    0.186305
    12  N   -0.029514
    13  N   -0.033153
    14  B    0.359373
    15  F   -0.365431
    16  F   -0.366586
    17  C    0.060707
    18  C   -0.310790
    19  C   -0.312025
    20  C   -0.272488
    21  H    0.184734
    22  C   -0.269070
    23  H    0.181360
    24  C    0.257072
    25  H    0.161128
    26  H    0.161023
    27  H    0.208027
    28  H    0.208230
    29  H    0.206228
    30  H    0.207521
    31  N   -0.527796
    32  H    0.294913
    33  H    0.295052
 Sum of Mulliken charges =  -0.00000
 Mulliken charges with hydrogens summed into heavy atoms:
               1
     1  C    0.178601
     2  C    0.196482
     3  C    0.068408
     4  C   -0.067750
     5  C    0.013898
     6  C    0.098880
     8  C    0.100141
     9  C   -0.074748
    10  C    0.017576
    12  N   -0.029514
    13  N   -0.033153
    14  B    0.359373
    15  F   -0.365431
    16  F   -0.366586
    17  C    0.060707
    18  C   -0.126056
    19  C   -0.130664
    20  C   -0.111360
    22  C   -0.108047
    24  C    0.257072
    31  N    0.062170
 Electronic spatial extent (au):  <R**2>=           6244.4670
 Charge=              0.0000 electrons
 Dipole moment (field-independent basis, Debye):
    X=             -8.6729    Y=              0.8748    Z=              0.2752  Tot=              8.7213
 Quadrupole moment (field-independent basis, Debye-Ang):
   XX=           -104.4972   YY=            -95.0641   ZZ=           -125.3471
   XY=             -4.6887   XZ=             -6.0022   YZ=             -3.7641
 Traceless Quadrupole moment (field-independent basis, Debye-Ang):
   XX=              3.8056   YY=             13.2387   ZZ=            -17.0443
   XY=             -4.6887   XZ=             -6.0022   YZ=             -3.7641
 Octapole moment (field-independent basis, Debye-Ang**2):
  XXX=           -268.3285  YYY=              2.3645  ZZZ=              2.0988  XYY=             49.8713
  XXY=             33.0700  XXZ=             28.2198  XZZ=            -18.4293  YZZ=             -0.6641
  YYZ=             -2.4040  XYZ=             26.9207
 Hexadecapole moment (field-independent basis, Debye-Ang**3):
 XXXX=          -4361.8362 YYYY=          -1824.9185 ZZZZ=           -376.2866 XXXY=           -203.3811
 XXXZ=           -204.2218 YYYX=             -6.4261 YYYZ=             31.2113 ZZZX=            -10.6738
 ZZZY=            -25.8040 XXYY=          -1116.1619 XXZZ=          -1020.0125 YYZZ=           -459.3271
 XXYZ=            -96.7732 YYXZ=             -2.2786 ZZXY=              0.3534
 N-N= 1.583869921131D+03 E-N=-5.430426133241D+03  KE= 9.629335724557D+02
 Unable to Open any file for archive entry.
 1\1\GINC-X1002C5S7B1N0\SP\RwB97XD TD-FC\def2TZVP\C15H12B1F2N3\1008721\
 07-Oct-2025\0\\# wb97xd/def2tzvp geom=check guess=read TD=(Read, NStat
 es=3, Root=1) SCRF=(SMD, solvent=ethanol, CorrectedLR, NonEq=Save)\\BD
 P-NH2_ethanol_wb97xd_wb97xd_wb97xd\\0,1\C,0,0.6321424036,-1.2079589539
 ,-0.105245744\C,0,0.6358907734,1.2164371418,0.0566277468\C,0,-0.103602
 9549,0.0045926609,-0.0107663078\C,0,0.1820385411,-2.5559095809,-0.2825
 578776\C,0,1.3116436682,-3.3551137291,-0.3484322664\C,0,2.4330163112,-
 2.5015273108,-0.220878268\H,0,1.3547185846,-4.4345601556,-0.4837888055
 \C,0,2.4441419298,2.5036800118,0.1230512551\C,0,0.1927594961,2.5754226
 256,0.1580302673\C,0,1.3265578775,3.3698475884,0.1915433259\H,0,1.3753
 965716,4.4550568972,0.2645529358\N,0,2.026032213,-1.2290934736,-0.0764
 031194\N,0,2.0309125412,1.2276424464,0.0462840345\B,0,2.9555039481,-0.
 0072919109,0.0661312529\F,0,3.665884963,-0.0649642239,1.2707293783\F,0
 ,3.8644762423,0.0416665193,-0.9936246902\C,0,-1.5768032987,0.001372808
 6,0.0013144101\C,0,-2.3208094106,0.8195567641,-0.866736166\C,0,-2.2950
 060964,-0.825326087,0.8832253204\C,0,-3.7089462525,0.8143581757,-0.858
 5042099\H,0,-1.8003868899,1.4627415998,-1.5809593566\C,0,-3.6828751112
 ,-0.8370422813,0.9012284884\H,0,-1.752704346,-1.460553932,1.5884318802
 \C,0,-4.4240567601,-0.0171622924,0.0266893817\H,0,-4.2591052525,1.4554
 903058,-1.5524526328\H,0,-4.212167917,-1.4832886443,1.6066211626\H,0,-
 0.8451172412,2.8964199916,0.2070268548\H,0,3.5053666321,2.7538953583,0
 .1378271631\H,0,-0.8575687353,-2.8645564047,-0.3659914987\H,0,3.492877
 1576,-2.757126909,-0.2358649011\N,0,-5.7956470617,-0.0605208754,0.0060
 062462\H,0,-6.2598436033,-0.4437225332,0.8214219495\H,0,-6.278365923,0
 .7252484026,-0.4143722095\\Version=ES64L-G16RevC.01\State=1-A\HF=-967.
 868809\RMSD=3.123e-09\Dipole=-3.4129174,0.3361016,0.1107418\Quadrupole
 =2.8440966,9.8666188,-12.7107154,-3.4690797,-4.4817458,-2.6472539\PG=C
 01 [X(C15H12B1F2N3)]\\@
 The archive entry for this job was punched.


 THE DIFFICULTY IN SCIENCE IS OFTEN NOT SO MUCH HOW
 TO MAKE A DISCOVERY BUT RATHER TO KNOW ONE HAS MADE IT.

                                                   -- J. D. BERNAL
 Job cpu time:       1 days  8 hours  2 minutes  3.1 seconds.
 Elapsed time:       0 days  1 hours  0 minutes 51.7 seconds.
 File lengths (MBytes):  RWF=   1597 Int=      0 D2E=      0 Chk=     91 Scr=      1
 Normal termination of Gaussian 16 at Tue Oct  7 11:55:10 2025.
