 Entering Gaussian System, Link 0=g16
 Initial command:
 /home/users/ntu/xiaogan4/Softwares/g16/l1.exe "/scratch/users/ntu/xiaogan4/g16scratch/Gau-2402885.inp" -scrdir="/scratch/users/ntu/xiaogan4/g16scratch/"
 Entering Link 1 = /home/users/ntu/xiaogan4/Softwares/g16/l1.exe PID=   2402886.
  
 Copyright (c) 1988,1990,1992,1993,1995,1998,2003,2009,2016,
            Gaussian, Inc.  All Rights Reserved.
  
 This is part of the Gaussian(R) 16 program.  It is based on
 the Gaussian(R) 09 system (copyright 2009, Gaussian, Inc.),
 the Gaussian(R) 03 system (copyright 2003, Gaussian, Inc.),
 the Gaussian(R) 98 system (copyright 1998, Gaussian, Inc.),
 the Gaussian(R) 94 system (copyright 1995, Gaussian, Inc.),
 the Gaussian 92(TM) system (copyright 1992, Gaussian, Inc.),
 the Gaussian 90(TM) system (copyright 1990, Gaussian, Inc.),
 the Gaussian 88(TM) system (copyright 1988, Gaussian, Inc.),
 the Gaussian 86(TM) system (copyright 1986, Carnegie Mellon
 University), and the Gaussian 82(TM) system (copyright 1983,
 Carnegie Mellon University). Gaussian is a federally registered
 trademark of Gaussian, Inc.
  
 This software contains proprietary and confidential information,
 including trade secrets, belonging to Gaussian, Inc.
  
 This software is provided under written license and may be
 used, copied, transmitted, or stored only in accord with that
 written license.
  
 The following legend is applicable only to US Government
 contracts under FAR:
  
                    RESTRICTED RIGHTS LEGEND
  
 Use, reproduction and disclosure by the US Government is
 subject to restrictions as set forth in subparagraphs (a)
 and (c) of the Commercial Computer Software - Restricted
 Rights clause in FAR 52.227-19.
  
 Gaussian, Inc.
 340 Quinnipiac St., Bldg. 40, Wallingford CT 06492
  
  
 ---------------------------------------------------------------
 Warning -- This program may not be used in any manner that
 competes with the business of Gaussian, Inc. or will provide
 assistance to any competitor of Gaussian, Inc.  The licensee
 of this program is prohibited from giving any competitor of
 Gaussian, Inc. access to this program.  By using this program,
 the user acknowledges that Gaussian, Inc. is engaged in the
 business of creating and licensing software in the field of
 computational chemistry and represents and warrants to the
 licensee that it is not a competitor of Gaussian, Inc. and that
 it will not use this program in any manner prohibited above.
 ---------------------------------------------------------------
  

 Cite this work as:
 Gaussian 16, Revision A.03,
 M. J. Frisch, G. W. Trucks, H. B. Schlegel, G. E. Scuseria, 
 M. A. Robb, J. R. Cheeseman, G. Scalmani, V. Barone, 
 G. A. Petersson, H. Nakatsuji, X. Li, M. Caricato, A. V. Marenich, 
 J. Bloino, B. G. Janesko, R. Gomperts, B. Mennucci, H. P. Hratchian, 
 J. V. Ortiz, A. F. Izmaylov, J. L. Sonnenberg, D. Williams-Young, 
 F. Ding, F. Lipparini, F. Egidi, J. Goings, B. Peng, A. Petrone, 
 T. Henderson, D. Ranasinghe, V. G. Zakrzewski, J. Gao, N. Rega, 
 G. Zheng, W. Liang, M. Hada, M. Ehara, K. Toyota, R. Fukuda, 
 J. Hasegawa, M. Ishida, T. Nakajima, Y. Honda, O. Kitao, H. Nakai, 
 T. Vreven, K. Throssell, J. A. Montgomery, Jr., J. E. Peralta, 
 F. Ogliaro, M. J. Bearpark, J. J. Heyd, E. N. Brothers, K. N. Kudin, 
 V. N. Staroverov, T. A. Keith, R. Kobayashi, J. Normand, 
 K. Raghavachari, A. P. Rendell, J. C. Burant, S. S. Iyengar, 
 J. Tomasi, M. Cossi, J. M. Millam, M. Klene, C. Adamo, R. Cammi, 
 J. W. Ochterski, R. L. Martin, K. Morokuma, O. Farkas, 
 J. B. Foresman, and D. J. Fox, Gaussian, Inc., Wallingford CT, 2016.
 
 ******************************************
 Gaussian 16:  ES64L-G16RevA.03 25-Dec-2016
                21-Dec-2025 
 ******************************************
 %nprocshared=40
 Will use up to   40 processors via shared memory.
 %mem=128GB
 %chk=04BDP-NH2_m062x_def2SVP_dmso.chk
 ----------------------------------------------------------------------
 # opt=calcfc freq td=(nstates=5,root=2) m062x scrf=(smd,solvent=ethano
 l) def2svp
 ----------------------------------------------------------------------
 1/10=4,18=20,19=15,26=3,38=1/1,3;
 2/9=110,12=2,17=6,18=5,40=1/2;
 3/5=43,7=101,11=9,25=1,30=1,70=32201,71=2,72=4,74=-55,140=1/1,2,3,8;
 4//1;
 5/5=2,38=5,53=4/2;
 8/6=1,10=1,107=2,108=5/1;
 9/8=2,15=3,41=5,42=1,70=2/14;
 10/5=2004,20=4,28=2/2;
 11/6=1,8=1,12=-2,16=1,42=3/1,2,10;
 10/6=3,21=1,28=2/2,14;
 6/7=2,8=2,9=2,10=2/1;
 7/10=1,12=6,13=8,14=2,18=20,25=1,44=2/1,2,3,16;
 1/10=4,18=20,19=15,26=3/3(2);
 2/9=110/2;
 99//99;
 2/9=110/2;
 3/5=43,7=101,11=9,25=1,30=1,70=32205,71=1,72=4,74=-55/1,2,3,8;
 4/5=5,16=3,69=1/1;
 5/5=2,38=5,53=4/2;
 8/6=1,10=1,107=2,108=5/1;
 9/8=2,15=2,41=5,42=1,49=4,70=2/14;
 10/5=4,28=2/2;
 7/12=6,13=5,14=2/1,2,3,16;
 1/18=20,19=15,26=3/3(-8);
 2/9=110/2;
 6/7=2,8=2,9=2,10=2/1;
 99//99;
 --------------------------
 Step4 ES Opt m062x/def2SVP
 --------------------------
 Symbolic Z-matrix:
 Charge =  0 Multiplicity = 1
 C                     0.37425   1.23851  -0.01691 
 C                     0.37421  -1.23849  -0.01689 
 C                    -0.33486   0.00002  -0.01716 
 C                    -0.07244   2.59027  -0.02893 
 C                     1.09838   3.38788  -0.02537 
 C                     2.21041   2.54976  -0.01122 
 H                     1.13037   4.47788  -0.03335 
 C                     2.21033  -2.54981  -0.01123 
 C                    -0.07252  -2.59025  -0.02891 
 C                     1.09827  -3.38789  -0.02537 
 H                     1.13023  -4.47789  -0.03334 
 N                     1.77046   1.24528  -0.00657 
 N                     1.77042  -1.24531  -0.00657 
 B                     2.66613  -0.00003   0.02827 
 F                     3.55645  -0.00005  -1.07852 
 F                     3.46711  -0.00004   1.20291 
 C                    -1.81971   0.00004  -0.0044 
 C                    -2.53583   0.00006   1.22834 
 C                    -2.56389   0.00004  -1.22027 
 C                    -3.90837   0.00006   1.25858 
 H                    -1.97279   0.00007   2.16315 
 C                    -3.93701   0.00003  -1.2193 
 H                    -2.02238   0.00004  -2.16772 
 C                    -4.6458    0.00002   0.02798 
 H                    -4.45816   0.00007   2.20177 
 H                    -4.50741   0.00001  -2.15008 
 N                    -5.97449  -0.00004   0.04443 
 H                    -6.51158  -0.00006  -0.82128 
 H                    -6.48924  -0.00004   0.92361 
 C                    -1.475     3.12702  -0.04779 
 H                    -2.04431   2.81215  -0.93888 
 H                    -2.06669   2.81823   0.83066 
 H                    -1.45551   4.22843  -0.05134 
 C                     3.65842   2.92363  -0.00127 
 H                     4.17922   2.52659   0.88642 
 H                     4.19219   2.52704  -0.88118 
 H                     3.76594   4.01814   0.00045 
 C                    -1.47509  -3.12696  -0.04776 
 H                    -2.06683  -2.81799   0.8306 
 H                    -2.04434  -2.81223  -0.93895 
 H                    -1.45564  -4.22836  -0.05111 
 C                     3.65832  -2.92373  -0.00129 
 H                     4.19212  -2.52706  -0.88115 
 H                     4.17913  -2.52679   0.88645 
 H                     3.7658   -4.01824   0.00032 
 

 GradGradGradGradGradGradGradGradGradGradGradGradGradGradGradGradGradGrad
 Berny optimization.
 Initialization pass.
                           ----------------------------
                           !    Initial Parameters    !
                           ! (Angstroms and Degrees)  !
 --------------------------                            --------------------------
 ! Name  Definition              Value          Derivative Info.                !
 --------------------------------------------------------------------------------
 ! R1    R(1,3)                  1.4271         calculate D2E/DX2 analytically  !
 ! R2    R(1,4)                  1.4237         calculate D2E/DX2 analytically  !
 ! R3    R(1,12)                 1.3963         calculate D2E/DX2 analytically  !
 ! R4    R(2,3)                  1.4271         calculate D2E/DX2 analytically  !
 ! R5    R(2,9)                  1.4237         calculate D2E/DX2 analytically  !
 ! R6    R(2,13)                 1.3963         calculate D2E/DX2 analytically  !
 ! R7    R(3,17)                 1.4849         calculate D2E/DX2 analytically  !
 ! R8    R(4,5)                  1.4167         calculate D2E/DX2 analytically  !
 ! R9    R(4,30)                 1.5019         calculate D2E/DX2 analytically  !
 ! R10   R(5,6)                  1.3926         calculate D2E/DX2 analytically  !
 ! R11   R(5,7)                  1.0905         calculate D2E/DX2 analytically  !
 ! R12   R(6,12)                 1.3767         calculate D2E/DX2 analytically  !
 ! R13   R(6,34)                 1.4955         calculate D2E/DX2 analytically  !
 ! R14   R(8,10)                 1.3926         calculate D2E/DX2 analytically  !
 ! R15   R(8,13)                 1.3767         calculate D2E/DX2 analytically  !
 ! R16   R(8,42)                 1.4955         calculate D2E/DX2 analytically  !
 ! R17   R(9,10)                 1.4167         calculate D2E/DX2 analytically  !
 ! R18   R(9,38)                 1.5019         calculate D2E/DX2 analytically  !
 ! R19   R(10,11)                1.0905         calculate D2E/DX2 analytically  !
 ! R20   R(12,14)                1.5343         calculate D2E/DX2 analytically  !
 ! R21   R(13,14)                1.5343         calculate D2E/DX2 analytically  !
 ! R22   R(14,15)                1.4204         calculate D2E/DX2 analytically  !
 ! R23   R(14,16)                1.4217         calculate D2E/DX2 analytically  !
 ! R24   R(17,18)                1.4256         calculate D2E/DX2 analytically  !
 ! R25   R(17,19)                1.4255         calculate D2E/DX2 analytically  !
 ! R26   R(18,20)                1.3729         calculate D2E/DX2 analytically  !
 ! R27   R(18,21)                1.0913         calculate D2E/DX2 analytically  !
 ! R28   R(19,22)                1.3731         calculate D2E/DX2 analytically  !
 ! R29   R(19,23)                1.0913         calculate D2E/DX2 analytically  !
 ! R30   R(20,24)                1.4346         calculate D2E/DX2 analytically  !
 ! R31   R(20,25)                1.0917         calculate D2E/DX2 analytically  !
 ! R32   R(22,24)                1.4346         calculate D2E/DX2 analytically  !
 ! R33   R(22,26)                1.0917         calculate D2E/DX2 analytically  !
 ! R34   R(24,27)                1.3288         calculate D2E/DX2 analytically  !
 ! R35   R(27,28)                1.0188         calculate D2E/DX2 analytically  !
 ! R36   R(27,29)                1.0188         calculate D2E/DX2 analytically  !
 ! R37   R(30,31)                1.1033         calculate D2E/DX2 analytically  !
 ! R38   R(30,32)                1.1032         calculate D2E/DX2 analytically  !
 ! R39   R(30,33)                1.1016         calculate D2E/DX2 analytically  !
 ! R40   R(34,35)                1.1031         calculate D2E/DX2 analytically  !
 ! R41   R(34,36)                1.1029         calculate D2E/DX2 analytically  !
 ! R42   R(34,37)                1.0998         calculate D2E/DX2 analytically  !
 ! R43   R(38,39)                1.1032         calculate D2E/DX2 analytically  !
 ! R44   R(38,40)                1.1033         calculate D2E/DX2 analytically  !
 ! R45   R(38,41)                1.1016         calculate D2E/DX2 analytically  !
 ! R46   R(42,43)                1.1029         calculate D2E/DX2 analytically  !
 ! R47   R(42,44)                1.1031         calculate D2E/DX2 analytically  !
 ! R48   R(42,45)                1.0998         calculate D2E/DX2 analytically  !
 ! A1    A(3,1,4)              131.9186         calculate D2E/DX2 analytically  !
 ! A2    A(3,1,12)             120.0706         calculate D2E/DX2 analytically  !
 ! A3    A(4,1,12)             108.0107         calculate D2E/DX2 analytically  !
 ! A4    A(3,2,9)              131.9186         calculate D2E/DX2 analytically  !
 ! A5    A(3,2,13)             120.0707         calculate D2E/DX2 analytically  !
 ! A6    A(9,2,13)             108.0106         calculate D2E/DX2 analytically  !
 ! A7    A(1,3,2)              120.4148         calculate D2E/DX2 analytically  !
 ! A8    A(1,3,17)             119.7912         calculate D2E/DX2 analytically  !
 ! A9    A(2,3,17)             119.7913         calculate D2E/DX2 analytically  !
 ! A10   A(1,4,5)              105.9763         calculate D2E/DX2 analytically  !
 ! A11   A(1,4,30)             129.2299         calculate D2E/DX2 analytically  !
 ! A12   A(5,4,30)             124.7933         calculate D2E/DX2 analytically  !
 ! A13   A(4,5,6)              108.7315         calculate D2E/DX2 analytically  !
 ! A14   A(4,5,7)              125.9427         calculate D2E/DX2 analytically  !
 ! A15   A(6,5,7)              125.3258         calculate D2E/DX2 analytically  !
 ! A16   A(5,6,12)             108.3686         calculate D2E/DX2 analytically  !
 ! A17   A(5,6,34)             128.5193         calculate D2E/DX2 analytically  !
 ! A18   A(12,6,34)            123.1121         calculate D2E/DX2 analytically  !
 ! A19   A(10,8,13)            108.3686         calculate D2E/DX2 analytically  !
 ! A20   A(10,8,42)            128.5192         calculate D2E/DX2 analytically  !
 ! A21   A(13,8,42)            123.1122         calculate D2E/DX2 analytically  !
 ! A22   A(2,9,10)             105.9763         calculate D2E/DX2 analytically  !
 ! A23   A(2,9,38)             129.2302         calculate D2E/DX2 analytically  !
 ! A24   A(10,9,38)            124.793          calculate D2E/DX2 analytically  !
 ! A25   A(8,10,9)             108.7316         calculate D2E/DX2 analytically  !
 ! A26   A(8,10,11)            125.3257         calculate D2E/DX2 analytically  !
 ! A27   A(9,10,11)            125.9426         calculate D2E/DX2 analytically  !
 ! A28   A(1,12,6)             108.9129         calculate D2E/DX2 analytically  !
 ! A29   A(1,12,14)            125.4472         calculate D2E/DX2 analytically  !
 ! A30   A(6,12,14)            125.6325         calculate D2E/DX2 analytically  !
 ! A31   A(2,13,8)             108.9129         calculate D2E/DX2 analytically  !
 ! A32   A(2,13,14)            125.4471         calculate D2E/DX2 analytically  !
 ! A33   A(8,13,14)            125.6326         calculate D2E/DX2 analytically  !
 ! A34   A(12,14,13)           108.5073         calculate D2E/DX2 analytically  !
 ! A35   A(12,14,15)           110.3776         calculate D2E/DX2 analytically  !
 ! A36   A(12,14,16)           110.3424         calculate D2E/DX2 analytically  !
 ! A37   A(13,14,15)           110.3776         calculate D2E/DX2 analytically  !
 ! A38   A(13,14,16)           110.3427         calculate D2E/DX2 analytically  !
 ! A39   A(15,14,16)           106.8963         calculate D2E/DX2 analytically  !
 ! A40   A(3,17,18)            120.6457         calculate D2E/DX2 analytically  !
 ! A41   A(3,17,19)            120.9763         calculate D2E/DX2 analytically  !
 ! A42   A(18,17,19)           118.378          calculate D2E/DX2 analytically  !
 ! A43   A(17,18,20)           121.4155         calculate D2E/DX2 analytically  !
 ! A44   A(17,18,21)           118.7859         calculate D2E/DX2 analytically  !
 ! A45   A(20,18,21)           119.7986         calculate D2E/DX2 analytically  !
 ! A46   A(17,19,22)           121.4282         calculate D2E/DX2 analytically  !
 ! A47   A(17,19,23)           118.7816         calculate D2E/DX2 analytically  !
 ! A48   A(22,19,23)           119.7902         calculate D2E/DX2 analytically  !
 ! A49   A(18,20,24)           119.6697         calculate D2E/DX2 analytically  !
 ! A50   A(18,20,25)           121.5005         calculate D2E/DX2 analytically  !
 ! A51   A(24,20,25)           118.8298         calculate D2E/DX2 analytically  !
 ! A52   A(19,22,24)           119.6486         calculate D2E/DX2 analytically  !
 ! A53   A(19,22,26)           121.4597         calculate D2E/DX2 analytically  !
 ! A54   A(24,22,26)           118.8917         calculate D2E/DX2 analytically  !
 ! A55   A(20,24,22)           119.4601         calculate D2E/DX2 analytically  !
 ! A56   A(20,24,27)           120.2227         calculate D2E/DX2 analytically  !
 ! A57   A(22,24,27)           120.3172         calculate D2E/DX2 analytically  !
 ! A58   A(24,27,28)           121.1064         calculate D2E/DX2 analytically  !
 ! A59   A(24,27,29)           121.0579         calculate D2E/DX2 analytically  !
 ! A60   A(28,27,29)           117.8358         calculate D2E/DX2 analytically  !
 ! A61   A(4,30,31)            112.9564         calculate D2E/DX2 analytically  !
 ! A62   A(4,30,32)            113.0062         calculate D2E/DX2 analytically  !
 ! A63   A(4,30,33)            109.9287         calculate D2E/DX2 analytically  !
 ! A64   A(31,30,32)           106.6465         calculate D2E/DX2 analytically  !
 ! A65   A(31,30,33)           106.9695         calculate D2E/DX2 analytically  !
 ! A66   A(32,30,33)           106.972          calculate D2E/DX2 analytically  !
 ! A67   A(6,34,35)            111.8694         calculate D2E/DX2 analytically  !
 ! A68   A(6,34,36)            111.9242         calculate D2E/DX2 analytically  !
 ! A69   A(6,34,37)            110.0881         calculate D2E/DX2 analytically  !
 ! A70   A(35,34,36)           106.5038         calculate D2E/DX2 analytically  !
 ! A71   A(35,34,37)           108.1072         calculate D2E/DX2 analytically  !
 ! A72   A(36,34,37)           108.1672         calculate D2E/DX2 analytically  !
 ! A73   A(9,38,39)            113.0064         calculate D2E/DX2 analytically  !
 ! A74   A(9,38,40)            112.9563         calculate D2E/DX2 analytically  !
 ! A75   A(9,38,41)            109.9285         calculate D2E/DX2 analytically  !
 ! A76   A(39,38,40)           106.6464         calculate D2E/DX2 analytically  !
 ! A77   A(39,38,41)           106.9723         calculate D2E/DX2 analytically  !
 ! A78   A(40,38,41)           106.9693         calculate D2E/DX2 analytically  !
 ! A79   A(8,42,43)            111.9241         calculate D2E/DX2 analytically  !
 ! A80   A(8,42,44)            111.8696         calculate D2E/DX2 analytically  !
 ! A81   A(8,42,45)            110.0881         calculate D2E/DX2 analytically  !
 ! A82   A(43,42,44)           106.5037         calculate D2E/DX2 analytically  !
 ! A83   A(43,42,45)           108.1673         calculate D2E/DX2 analytically  !
 ! A84   A(44,42,45)           108.1071         calculate D2E/DX2 analytically  !
 ! D1    D(4,1,3,2)            179.3588         calculate D2E/DX2 analytically  !
 ! D2    D(4,1,3,17)            -1.2331         calculate D2E/DX2 analytically  !
 ! D3    D(12,1,3,2)            -0.4655         calculate D2E/DX2 analytically  !
 ! D4    D(12,1,3,17)          178.9425         calculate D2E/DX2 analytically  !
 ! D5    D(3,1,4,5)           -179.8401         calculate D2E/DX2 analytically  !
 ! D6    D(3,1,4,30)            -0.0852         calculate D2E/DX2 analytically  !
 ! D7    D(12,1,4,5)             0.0001         calculate D2E/DX2 analytically  !
 ! D8    D(12,1,4,30)          179.755          calculate D2E/DX2 analytically  !
 ! D9    D(3,1,12,6)           179.8839         calculate D2E/DX2 analytically  !
 ! D10   D(3,1,12,14)           -1.0614         calculate D2E/DX2 analytically  !
 ! D11   D(4,1,12,6)             0.0213         calculate D2E/DX2 analytically  !
 ! D12   D(4,1,12,14)          179.076          calculate D2E/DX2 analytically  !
 ! D13   D(9,2,3,1)           -179.3584         calculate D2E/DX2 analytically  !
 ! D14   D(9,2,3,17)             1.2335         calculate D2E/DX2 analytically  !
 ! D15   D(13,2,3,1)             0.4651         calculate D2E/DX2 analytically  !
 ! D16   D(13,2,3,17)         -178.943          calculate D2E/DX2 analytically  !
 ! D17   D(3,2,9,10)           179.8389         calculate D2E/DX2 analytically  !
 ! D18   D(3,2,9,38)             0.0843         calculate D2E/DX2 analytically  !
 ! D19   D(13,2,9,10)           -0.0005         calculate D2E/DX2 analytically  !
 ! D20   D(13,2,9,38)         -179.7551         calculate D2E/DX2 analytically  !
 ! D21   D(3,2,13,8)          -179.8828         calculate D2E/DX2 analytically  !
 ! D22   D(3,2,13,14)            1.0623         calculate D2E/DX2 analytically  !
 ! D23   D(9,2,13,8)            -0.0209         calculate D2E/DX2 analytically  !
 ! D24   D(9,2,13,14)         -179.0758         calculate D2E/DX2 analytically  !
 ! D25   D(1,3,17,18)          -89.706          calculate D2E/DX2 analytically  !
 ! D26   D(1,3,17,19)           90.2944         calculate D2E/DX2 analytically  !
 ! D27   D(2,3,17,18)           89.7059         calculate D2E/DX2 analytically  !
 ! D28   D(2,3,17,19)          -90.2938         calculate D2E/DX2 analytically  !
 ! D29   D(1,4,5,6)             -0.0212         calculate D2E/DX2 analytically  !
 ! D30   D(1,4,5,7)            179.9225         calculate D2E/DX2 analytically  !
 ! D31   D(30,4,5,6)          -179.79           calculate D2E/DX2 analytically  !
 ! D32   D(30,4,5,7)             0.1537         calculate D2E/DX2 analytically  !
 ! D33   D(1,4,30,31)          -60.7135         calculate D2E/DX2 analytically  !
 ! D34   D(1,4,30,32)           60.4739         calculate D2E/DX2 analytically  !
 ! D35   D(1,4,30,33)          179.8981         calculate D2E/DX2 analytically  !
 ! D36   D(5,4,30,31)          118.9995         calculate D2E/DX2 analytically  !
 ! D37   D(5,4,30,32)         -119.8131         calculate D2E/DX2 analytically  !
 ! D38   D(5,4,30,33)           -0.3889         calculate D2E/DX2 analytically  !
 ! D39   D(4,5,6,12)             0.0348         calculate D2E/DX2 analytically  !
 ! D40   D(4,5,6,34)          -179.9309         calculate D2E/DX2 analytically  !
 ! D41   D(7,5,6,12)          -179.9094         calculate D2E/DX2 analytically  !
 ! D42   D(7,5,6,34)             0.125          calculate D2E/DX2 analytically  !
 ! D43   D(5,6,12,1)            -0.0347         calculate D2E/DX2 analytically  !
 ! D44   D(5,6,12,14)         -179.0872         calculate D2E/DX2 analytically  !
 ! D45   D(34,6,12,1)          179.9332         calculate D2E/DX2 analytically  !
 ! D46   D(34,6,12,14)           0.8807         calculate D2E/DX2 analytically  !
 ! D47   D(5,6,34,35)          120.6201         calculate D2E/DX2 analytically  !
 ! D48   D(5,6,34,36)         -119.9393         calculate D2E/DX2 analytically  !
 ! D49   D(5,6,34,37)            0.3964         calculate D2E/DX2 analytically  !
 ! D50   D(12,6,34,35)         -59.341          calculate D2E/DX2 analytically  !
 ! D51   D(12,6,34,36)          60.0996         calculate D2E/DX2 analytically  !
 ! D52   D(12,6,34,37)        -179.5647         calculate D2E/DX2 analytically  !
 ! D53   D(13,8,10,9)           -0.0347         calculate D2E/DX2 analytically  !
 ! D54   D(13,8,10,11)         179.9099         calculate D2E/DX2 analytically  !
 ! D55   D(42,8,10,9)          179.9306         calculate D2E/DX2 analytically  !
 ! D56   D(42,8,10,11)          -0.1247         calculate D2E/DX2 analytically  !
 ! D57   D(10,8,13,2)            0.0344         calculate D2E/DX2 analytically  !
 ! D58   D(10,8,13,14)         179.0871         calculate D2E/DX2 analytically  !
 ! D59   D(42,8,13,2)         -179.9332         calculate D2E/DX2 analytically  !
 ! D60   D(42,8,13,14)          -0.8805         calculate D2E/DX2 analytically  !
 ! D61   D(10,8,42,43)         119.9453         calculate D2E/DX2 analytically  !
 ! D62   D(10,8,42,44)        -120.6141         calculate D2E/DX2 analytically  !
 ! D63   D(10,8,42,45)          -0.3904         calculate D2E/DX2 analytically  !
 ! D64   D(13,8,42,43)         -60.094          calculate D2E/DX2 analytically  !
 ! D65   D(13,8,42,44)          59.3466         calculate D2E/DX2 analytically  !
 ! D66   D(13,8,42,45)         179.5704         calculate D2E/DX2 analytically  !
 ! D67   D(2,9,10,8)             0.0214         calculate D2E/DX2 analytically  !
 ! D68   D(2,9,10,11)         -179.9228         calculate D2E/DX2 analytically  !
 ! D69   D(38,9,10,8)          179.7899         calculate D2E/DX2 analytically  !
 ! D70   D(38,9,10,11)          -0.1543         calculate D2E/DX2 analytically  !
 ! D71   D(2,9,38,39)          -60.4626         calculate D2E/DX2 analytically  !
 ! D72   D(2,9,38,40)           60.7248         calculate D2E/DX2 analytically  !
 ! D73   D(2,9,38,41)         -179.8872         calculate D2E/DX2 analytically  !
 ! D74   D(10,9,38,39)         119.8247         calculate D2E/DX2 analytically  !
 ! D75   D(10,9,38,40)        -118.9879         calculate D2E/DX2 analytically  !
 ! D76   D(10,9,38,41)           0.4001         calculate D2E/DX2 analytically  !
 ! D77   D(1,12,14,13)           2.2135         calculate D2E/DX2 analytically  !
 ! D78   D(1,12,14,15)         123.2811         calculate D2E/DX2 analytically  !
 ! D79   D(1,12,14,16)        -118.7895         calculate D2E/DX2 analytically  !
 ! D80   D(6,12,14,13)        -178.8868         calculate D2E/DX2 analytically  !
 ! D81   D(6,12,14,15)         -57.8193         calculate D2E/DX2 analytically  !
 ! D82   D(6,12,14,16)          60.1102         calculate D2E/DX2 analytically  !
 ! D83   D(2,13,14,12)          -2.214          calculate D2E/DX2 analytically  !
 ! D84   D(2,13,14,15)        -123.2816         calculate D2E/DX2 analytically  !
 ! D85   D(2,13,14,16)         118.7889         calculate D2E/DX2 analytically  !
 ! D86   D(8,13,14,12)         178.8861         calculate D2E/DX2 analytically  !
 ! D87   D(8,13,14,15)          57.8185         calculate D2E/DX2 analytically  !
 ! D88   D(8,13,14,16)         -60.1111         calculate D2E/DX2 analytically  !
 ! D89   D(3,17,18,20)        -179.9986         calculate D2E/DX2 analytically  !
 ! D90   D(3,17,18,21)           0.0011         calculate D2E/DX2 analytically  !
 ! D91   D(19,17,18,20)          0.0011         calculate D2E/DX2 analytically  !
 ! D92   D(19,17,18,21)       -179.9992         calculate D2E/DX2 analytically  !
 ! D93   D(3,17,19,22)         179.998          calculate D2E/DX2 analytically  !
 ! D94   D(3,17,19,23)          -0.0011         calculate D2E/DX2 analytically  !
 ! D95   D(18,17,19,22)         -0.0016         calculate D2E/DX2 analytically  !
 ! D96   D(18,17,19,23)        179.9992         calculate D2E/DX2 analytically  !
 ! D97   D(17,18,20,24)          0.0006         calculate D2E/DX2 analytically  !
 ! D98   D(17,18,20,25)        179.9999         calculate D2E/DX2 analytically  !
 ! D99   D(21,18,20,24)       -179.9991         calculate D2E/DX2 analytically  !
 ! D100  D(21,18,20,25)          0.0002         calculate D2E/DX2 analytically  !
 ! D101  D(17,19,22,24)          0.0005         calculate D2E/DX2 analytically  !
 ! D102  D(17,19,22,26)       -179.9986         calculate D2E/DX2 analytically  !
 ! D103  D(23,19,22,24)        179.9996         calculate D2E/DX2 analytically  !
 ! D104  D(23,19,22,26)          0.0005         calculate D2E/DX2 analytically  !
 ! D105  D(18,20,24,22)         -0.0017         calculate D2E/DX2 analytically  !
 ! D106  D(18,20,24,27)        179.9976         calculate D2E/DX2 analytically  !
 ! D107  D(25,20,24,22)        179.9989         calculate D2E/DX2 analytically  !
 ! D108  D(25,20,24,27)         -0.0018         calculate D2E/DX2 analytically  !
 ! D109  D(19,22,24,20)          0.0012         calculate D2E/DX2 analytically  !
 ! D110  D(19,22,24,27)       -179.9981         calculate D2E/DX2 analytically  !
 ! D111  D(26,22,24,20)       -179.9997         calculate D2E/DX2 analytically  !
 ! D112  D(26,22,24,27)          0.0011         calculate D2E/DX2 analytically  !
 ! D113  D(20,24,27,28)       -179.9999         calculate D2E/DX2 analytically  !
 ! D114  D(20,24,27,29)          0.0011         calculate D2E/DX2 analytically  !
 ! D115  D(22,24,27,28)         -0.0006         calculate D2E/DX2 analytically  !
 ! D116  D(22,24,27,29)       -179.9996         calculate D2E/DX2 analytically  !
 --------------------------------------------------------------------------------
 Trust Radius=3.00D-01 FncErr=1.00D-07 GrdErr=1.00D-06 EigMax=2.50D+02 EigMin=1.00D-04
 Number of steps in this run=    258 maximum allowed number of steps=    270.
 GradGradGradGradGradGradGradGradGradGradGradGradGradGradGradGradGradGrad

                          Input orientation:                          
 ---------------------------------------------------------------------
 Center     Atomic      Atomic             Coordinates (Angstroms)
 Number     Number       Type             X           Y           Z
 ---------------------------------------------------------------------
      1          6           0        0.374245    1.238508   -0.016905
      2          6           0        0.374206   -1.238493   -0.016893
      3          6           0       -0.334858    0.000019   -0.017161
      4          6           0       -0.072441    2.590273   -0.028931
      5          6           0        1.098380    3.387880   -0.025368
      6          6           0        2.210411    2.549759   -0.011218
      7          1           0        1.130370    4.477882   -0.033345
      8          6           0        2.210330   -2.549805   -0.011226
      9          6           0       -0.072524   -2.590245   -0.028914
     10          6           0        1.098272   -3.387889   -0.025367
     11          1           0        1.130227   -4.477893   -0.033341
     12          7           0        1.770463    1.245280   -0.006571
     13          7           0        1.770424   -1.245311   -0.006568
     14          5           0        2.666130   -0.000029    0.028265
     15          9           0        3.556451   -0.000045   -1.078516
     16          9           0        3.467105   -0.000036    1.202906
     17          6           0       -1.819709    0.000044   -0.004397
     18          6           0       -2.535830    0.000061    1.228336
     19          6           0       -2.563887    0.000044   -1.220270
     20          6           0       -3.908366    0.000055    1.258578
     21          1           0       -1.972785    0.000074    2.163149
     22          6           0       -3.937014    0.000027   -1.219296
     23          1           0       -2.022384    0.000044   -2.167719
     24          6           0       -4.645795    0.000019    0.027982
     25          1           0       -4.458159    0.000067    2.201769
     26          1           0       -4.507408    0.000005   -2.150081
     27          7           0       -5.974488   -0.000036    0.044431
     28          1           0       -6.511579   -0.000064   -0.821280
     29          1           0       -6.489237   -0.000036    0.923606
     30          6           0       -1.474996    3.127021   -0.047788
     31          1           0       -2.044311    2.812153   -0.938879
     32          1           0       -2.066688    2.818229    0.830662
     33          1           0       -1.455510    4.228425   -0.051337
     34          6           0        3.658416    2.923632   -0.001267
     35          1           0        4.179220    2.526585    0.886418
     36          1           0        4.192191    2.527035   -0.881181
     37          1           0        3.765936    4.018141    0.000448
     38          6           0       -1.475093   -3.126955   -0.047759
     39          1           0       -2.066834   -2.817986    0.830595
     40          1           0       -2.044343   -2.812234   -0.938946
     41          1           0       -1.455637   -4.228361   -0.051111
     42          6           0        3.658322   -2.923728   -0.001287
     43          1           0        4.192123   -2.527059   -0.881152
     44          1           0        4.179128   -2.526790    0.886446
     45          1           0        3.765804   -4.018241    0.000319
 ---------------------------------------------------------------------
                    Distance matrix (angstroms):
                    1          2          3          4          5
     1  C    0.000000
     2  C    2.477001   0.000000
     3  C    1.427124   1.427124   0.000000
     4  C    1.423707   3.854749   2.603539   0.000000
     5  C    2.268092   4.682716   3.678565   1.416690   0.000000
     6  C    2.256306   4.209814   3.602722   2.283280   1.392573
     7  H    3.326491   5.766194   4.711519   2.238268   1.090501
     8  C    4.209817   2.256307   3.602724   5.624212   6.040922
     9  C    3.854750   1.423708   2.603541   5.180518   6.091716
    10  C    4.682717   2.268093   3.678566   6.091716   6.775769
    11  H    5.766196   3.326492   4.711521   7.169756   7.865842
    12  N    1.396273   2.849345   2.446051   2.281623   2.245614
    13  N    2.849347   1.396273   2.446052   4.255391   4.681715
    14  B    2.605523   2.605523   3.001332   3.769974   3.733449
    15  F    3.575957   3.575959   4.033455   4.580418   4.316164
    16  F    3.547917   3.547916   3.992930   4.555821   4.312481
    17  C    2.519401   2.519403   1.484906   3.124553   4.471366
    18  C    3.398958   3.398959   2.528941   3.789222   5.124117
    19  C    3.408005   3.408002   2.532991   3.786275   5.130051
    20  C    4.636958   4.636944   3.794400   4.804293   6.180079
    21  H    3.434371   3.434385   2.727005   3.889171   5.069407
    22  C    4.643978   4.643955   3.797454   4.802215   6.185322
    23  H    3.450163   3.450170   2.733614   3.884067   5.079987
    24  C    5.170752   5.170719   4.311173   5.256255   6.669033
    25  H    5.459705   5.459693   4.682442   5.560550   6.878411
    26  H    5.469448   5.469417   4.686099   5.556770   6.885997
    27  N    6.468707   6.468651   5.639966   6.445870   7.842723
    28  H    7.042418   7.042356   6.228843   6.985711   8.367982
    29  H    7.037467   7.037412   6.225867   6.985148   8.363639
    30  C    2.643317   4.741120   3.328512   1.501870   2.586661
    31  H    3.029160   4.806976   3.417586   2.183004   3.323021
    32  H    3.028538   4.809710   3.414725   2.183549   3.327904
    33  H    3.505537   5.765088   4.374522   2.144044   2.688781
    34  C    3.691296   5.301845   4.949142   3.745823   2.601901
    35  H    4.117398   5.428620   5.251370   4.349545   3.326373
    36  H    4.121163   5.431685   5.256093   4.349416   3.323422
    37  H    4.385228   6.255904   5.741265   4.095462   2.741122
    38  C    4.741125   2.643321   3.328519   5.886806   7.004737
    39  H    4.809601   3.028483   3.414613   5.828006   7.018834
    40  H    4.807103   3.029228   3.417718   5.822680   7.010902
    41  H    5.765093   3.505539   4.374528   6.957549   8.033106
    42  C    5.301850   3.691298   4.949145   6.657594   6.811041
    43  H    5.431631   4.121145   5.256059   6.715644   6.729793
    44  H    5.428687   4.117422   5.251413   6.715511   6.730953
    45  H    6.255908   4.385229   5.741267   7.642345   7.871876
                    6          7          8          9         10
     6  C    0.000000
     7  H    2.210121   0.000000
     8  C    5.099564   7.110217   0.000000
     9  C    5.624211   7.169755   2.283281   0.000000
    10  C    6.040920   7.865841   1.392572   1.416690   0.000000
    11  H    7.110217   8.955775   2.210121   2.238268   1.090501
    12  N    1.376678   3.295474   3.820494   4.255391   4.681714
    13  N    3.820493   5.758934   1.376678   2.281623   2.245614
    14  B    2.590494   4.734347   2.590496   3.769975   3.733450
    15  F    3.074484   5.199046   3.074480   4.580421   4.316162
    16  F    3.091089   5.200038   3.091104   4.555824   4.312490
    17  C    4.768958   5.362354   4.768961   3.124557   4.471369
    18  C    5.528495   5.923153   5.528505   3.789227   5.124127
    19  C    5.545879   5.925146   5.545869   3.786267   5.130038
    20  C    6.749282   6.863589   6.749269   4.804266   6.180057
    21  H    5.359841   5.874089   5.359873   3.889201   5.069446
    22  C    6.763980   6.865570   6.763942   4.802166   6.185268
    23  H    5.391484   5.877622   5.391480   3.884075   5.079986
    24  C    7.315072   7.308837   7.315025   5.256188   6.668963
    25  H    7.474494   7.501881   7.474486   5.560527   6.878394
    26  H    7.497004   7.504432   7.496948   5.556702   6.885919
    27  N    8.573046   8.398619   8.572961   6.445754   7.842599
    28  H    9.123097   8.892257   9.122996   6.985579   8.367835
    29  H    9.113683   8.889652   9.113600   6.985033   8.363515
    30  C    3.730522   2.934786   6.768258   5.886800   7.004731
    31  H    4.362575   3.697735   6.907467   5.822532   7.010767
    32  H    4.367426   3.704340   6.915016   5.828135   7.018950
    33  H    4.032184   2.597947   7.706127   6.957544   8.033101
    34  C    1.495526   2.967783   5.661763   6.657591   6.811036
    35  H    2.163908   3.734837   5.518336   6.715438   6.730869
    36  H    2.164441   3.728187   5.518958   6.715706   6.729865
    37  H    2.139145   2.675577   6.749664   7.642343   7.871873
    38  C    6.768261   8.038793   3.730520   1.501870   2.586657
    39  H    6.914923   8.012378   4.367461   2.183551   3.327966
    40  H    6.907574   8.002794   4.362542   2.183004   3.322956
    41  H    7.706128   9.082203   4.032177   2.144043   2.688774
    42  C    5.661767   7.821470   1.495526   3.745822   2.601900
    43  H    5.518881   7.691704   2.164438   4.349427   3.323449
    44  H    5.518423   7.694568   2.163911   4.349535   3.326345
    45  H    6.749667   8.895547   2.139144   4.095460   2.741118
                   11         12         13         14         15
    11  H    0.000000
    12  N    5.758935   0.000000
    13  N    3.295475   2.490591   0.000000
    14  B    4.734349   1.534349   1.534350   0.000000
    15  F    5.199046   2.426861   2.426861   1.420435   0.000000
    16  F    5.200049   2.427394   2.427399   1.421739   2.283171
    17  C    5.362358   3.799994   3.799996   4.485958   5.482411
    18  C    5.923164   4.649702   4.649706   5.338591   6.514404
    19  C    5.925133   4.670146   4.670143   5.376980   6.121979
    20  C    6.863563   5.949814   5.949806   6.688622   7.822116
    21  H    5.874133   4.502236   4.502252   5.106590   6.409434
    22  C    6.865507   5.966293   5.966274   6.719964   7.494787
    23  H    5.877622   4.539478   4.539480   5.177307   5.684168
    24  C    7.308754   6.536072   6.536047   7.311925   8.276544
    25  H    7.501860   6.724809   6.724802   7.448464   8.659922
    26  H    7.504338   6.749593   6.749566   7.496989   8.134745
    27  N    8.398466   7.844596   7.844551   8.640633   9.596864
    28  H    8.892075   8.414681   8.414628   9.216945  10.071316
    29  H    8.889498   8.404682   8.404638   9.199042  10.243258
    30  C    8.038788   3.751753   5.445341   5.189716   6.013019
    31  H    8.002653   4.228095   5.646629   5.570636   6.268691
    32  H    8.012500   4.230704   5.651260   5.566506   6.573228
    33  H    9.082199   4.394094   6.353774   5.905428   6.637380
    34  C    7.821467   2.526116   4.576530   3.087604   3.117491
    35  H    7.694480   2.870763   4.563652   3.067515   3.260777
    36  H    7.691780   2.876214   4.567329   3.089014   2.613281
    37  H    8.895544   3.416244   5.629036   4.166058   4.165797
    38  C    2.934780   5.445344   3.751754   5.189718   6.013024
    39  H    3.704440   5.651179   4.230685   5.566468   6.573190
    40  H    3.697626   5.646724   4.228123   5.570687   6.268714
    41  H    2.597937   6.353775   4.394092   5.905426   6.637412
    42  C    2.967780   4.576534   2.526118   3.087610   3.117487
    43  H    3.728236   4.567261   2.876178   3.088944   2.613203
    44  H    3.734784   4.563733   2.870804   3.067598   3.260865
    45  H    2.675571   5.629040   3.416245   4.166064   4.165767
                   16         17         18         19         20
    16  F    0.000000
    17  C    5.422913   0.000000
    18  C    6.002989   1.425644   0.000000
    19  C    6.499588   1.425534   2.448767   0.000000
    20  C    7.375681   2.440818   1.372869   2.819984   0.000000
    21  H    5.523990   2.172945   1.091281   3.434665   2.136521
    22  C    7.790253   2.441098   2.820323   1.373127   2.478040
    23  H    6.441708   2.172795   3.434649   1.091277   3.911066
    24  C    8.197536   2.826271   2.427509   2.427442   1.434632
    25  H    7.987962   3.439271   2.154744   3.911345   1.091733
    26  H    8.650744   3.439140   3.911626   2.154489   3.460897
    27  N    9.512399   4.155066   3.636757   3.637536   2.396458
    28  H   10.181918   4.762451   4.472975   3.967804   3.332046
    29  H    9.960259   4.760849   3.965134   4.472648   2.602518
    30  C    5.980559   3.146219   3.540020   3.512603   4.172026
    31  H    6.547622   2.971811   3.584170   2.873517   4.026340
    32  H    6.221258   2.949659   2.884495   3.520752   3.393670
    33  H    6.609474   4.244296   4.547935   4.524833   5.060780
    34  C    3.167723   6.209447   6.959014   6.982148   8.209184
    35  H    2.644066   6.569940   7.182766   7.502735   8.481209
    36  H    3.354885   6.580074   7.490122   7.221167   8.751184
    37  H    4.204872   6.880738   7.573964   7.596178   8.753446
    38  C    5.980561   3.146230   3.540030   3.512603   4.171993
    39  H    6.221249   2.949504   2.884362   3.520568   3.393489
    40  H    6.547675   2.971994   3.584365   2.873670   4.026495
    41  H    6.609439   4.244307   4.547896   4.524882   5.060698
    42  C    3.167747   6.209451   6.959025   6.982138   8.209174
    43  H    3.354817   6.580051   7.490102   7.221144   8.751153
    44  H    2.644165   6.569972   7.182794   7.502759   8.481214
    45  H    4.204927   6.880741   7.573993   7.596146   8.753445
                   21         22         23         24         25
    21  H    0.000000
    22  C    3.911410   0.000000
    23  H    4.331152   2.136660   0.000000
    24  C    3.421099   1.434599   3.421022   0.000000
    25  H    2.485674   3.460531   5.002542   2.181870   0.000000
    26  H    5.002826   1.091655   2.485087   2.182455   4.352129
    27  N    4.527979   2.397563   4.529099   1.328795   2.636923
    28  H    5.432078   2.605149   4.686765   2.049975   3.654498
    29  H    4.683461   3.332547   5.432225   2.049493   2.399787
    30  C    3.861843   4.148741   3.817293   4.453970   4.872126
    31  H    4.187539   3.401325   3.068955   3.951030   4.857794
    32  H    3.118708   3.955087   4.115145   3.903639   3.942221
    33  H    4.801091   5.039974   4.762313   5.297511   5.654326
    34  C    6.703903   8.229315   6.746286   8.803879   8.903897
    35  H    6.772036   8.757327   7.360099   9.219617   9.094930
    36  H    7.325326   8.519628   6.830945   9.237012   9.524637
    37  H    7.331784   8.773167   7.372293   9.322193   9.414163
    38  C    3.861881   4.148683   3.817313   4.453881   4.872097
    39  H    3.118655   3.954848   4.114992   3.903381   3.942078
    40  H    4.187743   3.401413   3.069083   3.951110   4.857946
    41  H    4.801047   5.039956   4.762420   5.297411   5.654221
    42  C    6.703937   8.229278   6.746280   8.803835   8.903892
    43  H    7.325316   8.519588   6.830930   9.236961   9.524607
    44  H    6.772078   8.757323   7.360133   9.219598   9.094933
    45  H    7.331855   8.773103   7.372254   9.322134   9.414178
                   26         27         28         29         30
    26  H    0.000000
    27  N    2.639736   0.000000
    28  H    2.404665   1.018785   0.000000
    29  H    3.657212   1.018781   1.745029   0.000000
    30  C    4.836671   5.480184   5.978639   5.988715   0.000000
    31  H    3.929635   4.931693   5.280045   5.579841   1.103315
    32  H    4.773293   4.881770   5.516226   5.245016   1.103234
    33  H    5.621240   6.189525   6.636020   6.645961   1.101582
    34  C    8.935641  10.066914  10.613634  10.600853   5.137650
    35  H    9.542612  10.497168  11.117256  10.963629   5.762241
    36  H    9.147623  10.516853  10.998205  11.123680   5.759474
    37  H    9.445550  10.536771  11.065646  11.052897   5.316370
    38  C    4.836587   5.480025   5.978459   5.988557   6.253976
    39  H    4.773039   4.881460   5.515898   5.244725   6.038620
    40  H    3.929660   4.931686   5.279995   5.579842   6.032667
    41  H    5.621215   6.189336   6.635827   6.645746   7.355408
    42  C    8.935585  10.066831  10.613533  10.600771   7.935029
    43  H    9.147572  10.516774  10.998115  11.123599   8.048562
    44  H    9.542594  10.497114  11.117189  10.963571   8.050310
    45  H    9.445452  10.536660  11.065504  11.052796   8.861324
                   31         32         33         34         35
    31  H    0.000000
    32  H    1.769693   0.000000
    33  H    1.772073   1.772037   0.000000
    34  C    5.780367   5.786193   5.277995   0.000000
    35  H    6.491964   6.252962   5.960355   1.103117   0.000000
    36  H    6.243283   6.495288   5.956500   1.102930   1.767647
    37  H    6.007971   6.012366   5.225935   1.099779   1.783392
    38  C    6.032504   6.038776   7.355407   7.935029   8.050246
    39  H    5.901696   5.636215   7.127652   8.150869   8.220751
    40  H    5.624387   5.902044   7.120776   8.142534   8.400457
    41  H    7.120639   7.127786   8.456786   8.792441   8.846461
    42  C    8.142446   8.150948   8.792444   5.847360   5.546645
    43  H    8.209971   8.406850   8.844259   5.546988   5.353857
    44  H    8.400436   8.220861   8.846554   5.546736   5.053375
    45  H    9.016308   9.024675   9.760752   6.942704   6.617464
                   36         37         38         39         40
    36  H    0.000000
    37  H    1.783917   0.000000
    38  C    8.048621   8.861326   0.000000
    39  H    8.406832   9.024577   1.103234   0.000000
    40  H    8.210084   9.016420   1.103317   1.769693   0.000000
    41  H    8.844340   9.760752   1.101583   1.772040   1.772073
    42  C    5.547076   6.942703   5.137646   5.786244   5.780313
    43  H    5.054094   6.618043   5.759493   6.495326   6.243250
    44  H    5.354047   6.617540   5.762218   6.252996   6.491928
    45  H    6.618118   8.036382   5.316362   6.012457   6.007868
                   41         42         43         44         45
    41  H    0.000000
    42  C    5.277985   0.000000
    43  H    5.956559   1.102929   0.000000
    44  H    5.960280   1.103118   1.767646   0.000000
    45  H    5.225920   1.099779   1.783918   1.783391   0.000000
 Stoichiometry    C19H20BF2N3
 Framework group  C1[X(C19H20BF2N3)]
 Deg. of freedom   129
 Full point group                 C1      NOp   1
 Largest Abelian subgroup         C1      NOp   1
 Largest concise Abelian subgroup C1      NOp   1
                         Standard orientation:                         
 ---------------------------------------------------------------------
 Center     Atomic      Atomic             Coordinates (Angstroms)
 Number     Number       Type             X           Y           Z
 ---------------------------------------------------------------------
      1          6           0       -0.374245   -1.238508   -0.016905
      2          6           0       -0.374206    1.238493   -0.016893
      3          6           0        0.334858   -0.000019   -0.017161
      4          6           0        0.072441   -2.590273   -0.028931
      5          6           0       -1.098380   -3.387880   -0.025368
      6          6           0       -2.210411   -2.549759   -0.011218
      7          1           0       -1.130370   -4.477882   -0.033345
      8          6           0       -2.210330    2.549805   -0.011226
      9          6           0        0.072524    2.590245   -0.028914
     10          6           0       -1.098272    3.387889   -0.025367
     11          1           0       -1.130227    4.477893   -0.033341
     12          7           0       -1.770463   -1.245280   -0.006571
     13          7           0       -1.770424    1.245311   -0.006568
     14          5           0       -2.666130    0.000029    0.028265
     15          9           0       -3.556451    0.000045   -1.078516
     16          9           0       -3.467105    0.000036    1.202906
     17          6           0        1.819709   -0.000044   -0.004397
     18          6           0        2.535830   -0.000061    1.228336
     19          6           0        2.563887   -0.000044   -1.220270
     20          6           0        3.908366   -0.000055    1.258578
     21          1           0        1.972785   -0.000074    2.163149
     22          6           0        3.937014   -0.000027   -1.219296
     23          1           0        2.022384   -0.000044   -2.167719
     24          6           0        4.645795   -0.000019    0.027982
     25          1           0        4.458159   -0.000067    2.201769
     26          1           0        4.507408   -0.000005   -2.150081
     27          7           0        5.974488    0.000036    0.044431
     28          1           0        6.511579    0.000064   -0.821280
     29          1           0        6.489237    0.000036    0.923606
     30          6           0        1.474996   -3.127021   -0.047788
     31          1           0        2.044311   -2.812153   -0.938879
     32          1           0        2.066688   -2.818229    0.830662
     33          1           0        1.455510   -4.228425   -0.051337
     34          6           0       -3.658416   -2.923632   -0.001267
     35          1           0       -4.179220   -2.526585    0.886418
     36          1           0       -4.192191   -2.527035   -0.881181
     37          1           0       -3.765936   -4.018141    0.000448
     38          6           0        1.475093    3.126955   -0.047759
     39          1           0        2.066834    2.817986    0.830595
     40          1           0        2.044343    2.812234   -0.938946
     41          1           0        1.455637    4.228361   -0.051111
     42          6           0       -3.658322    2.923728   -0.001287
     43          1           0       -4.192123    2.527059   -0.881152
     44          1           0       -4.179128    2.526790    0.886446
     45          1           0       -3.765804    4.018241    0.000319
 ---------------------------------------------------------------------
 Rotational constants (GHZ):           0.3537325           0.1749840           0.1257786
 Standard basis: def2SVP (5D, 7F)
 There are   475 symmetry adapted cartesian basis functions of A   symmetry.
 There are   450 symmetry adapted basis functions of A   symmetry.
   450 basis functions,   765 primitive gaussians,   475 cartesian basis functions
    89 alpha electrons       89 beta electrons
       nuclear repulsion energy      2208.3909906635 Hartrees.
 NAtoms=   45 NActive=   45 NUniq=   45 SFac= 1.00D+00 NAtFMM=   60 NAOKFM=F Big=F
 Integral buffers will be    131072 words long.
 Regular integral format.
 Two-electron integral symmetry is turned on.
 Force inversion solution in PCM.
 ------------------------------------------------------------------------------
 Polarizable Continuum Model (PCM)
 =================================
 Model                : PCM.
 Atomic radii         : SMD-Coulomb.
 Polarization charges : Total charges.
 Charge compensation  : None.
 Solution method      : Matrix inversion.
 Cavity type          : VdW (van der Waals Surface) (Alpha=1.000).
 Cavity algorithm     : GePol (No added spheres)
                        Default sphere list used, NSphG=   45.
                        Lebedev-Laikov grids with approx.  5.0 points / Ang**2.
                        Smoothing algorithm: York/Karplus (Gamma=1.0000).
                        Polarization charges: spherical gaussians, with
                                              point-specific exponents (IZeta= 3).
                        Self-potential: point-specific (ISelfS= 7).
                        Self-field    : sphere-specific E.n sum rule (ISelfD= 2).
 1st derivatives      : Analytical E(r).r(x)/FMM algorithm (CHGder, D1EAlg=3).
                        Cavity 1st derivative terms included.
 2nd derivatives      : Analytical E(r).r(xy)/FMM algorithm (CHGder, D2EAlg=3).
                        Cavity 2nd derivative terms included.
 Solvent              : Ethanol, Eps=  24.852000 Eps(inf)=   1.852593
 ------------------------------------------------------------------------------
 ------------------------------------------------------------------------------
 Atomic radii for non-electrostatic terms: SMD-CDS.
 ------------------------------------------------------------------------------
 Nuclear repulsion after PCM non-electrostatic terms =     2208.3885241612 Hartrees.
 One-electron integrals computed using PRISM.
   1 Symmetry operations used in ECPInt.
 ECPInt:  NShTT=   22155 NPrTT=   80585 LenC2=   19733 LenP2D=   49099.
 LDataN:  DoStor=T MaxTD1= 4 Len=   56
 NBasis=   450 RedAO= T EigKep=  2.68D-04  NBF=   450
 NBsUse=   450 1.00D-06 EigRej= -1.00D+00 NBFU=   450
 ExpMin= 8.36D-02 ExpMax= 2.89D+03 ExpMxC= 4.35D+02 IAcc=3 IRadAn=         5 AccDes= 0.00D+00
 Harris functional with IExCor= 1009 and IRadAn=       5 diagonalized for initial guess.
 HarFok:  IExCor= 1009 AccDes= 0.00D+00 IRadAn=         5 IDoV= 1 UseB2=F ITyADJ=14
 ICtDFT=  3500011 ScaDFX=  1.000000  1.000000  1.000000  1.000000
 FoFCou: FMM=F IPFlag=           0 FMFlag=      100000 FMFlg1=           0
         NFxFlg=           0 DoJE=T BraDBF=F KetDBF=T FulRan=T
         wScrn=  0.000000 ICntrl=       500 IOpCl=  0 I1Cent=   200000004 NGrid=           0
         NMat0=    1 NMatS0=      1 NMatT0=    0 NMatD0=    1 NMtDS0=    0 NMtDT0=    0
 Petite list used in FoFCou.
 Requested convergence on RMS density matrix=1.00D-08 within 128 cycles.
 Requested convergence on MAX density matrix=1.00D-06.
 Requested convergence on             energy=1.00D-06.
 No special actions if energy rises.
 Inv3:  Mode=1 IEnd=    32432832.
 Iteration    1 A*A^-1 deviation from unit magnitude is 1.07D-14 for    235.
 Iteration    1 A*A^-1 deviation from orthogonality  is 5.74D-15 for   1816    648.
 Iteration    1 A^-1*A deviation from unit magnitude is 1.04D-14 for    235.
 Iteration    1 A^-1*A deviation from orthogonality  is 7.59D-14 for   2482   2418.
 Error on total polarization charges =  0.04804
 SCF Done:  E(RM062X) =  -1123.81712169     A.U. after   12 cycles
            NFock= 12  Conv=0.97D-08     -V/T= 2.0107
 SMD-CDS (non-electrostatic) energy       (kcal/mol) =      -1.55
 (included in total energy above)
 DoSCS=F DFT=T ScalE2(SS,OS)=  1.000000  1.000000
 ExpMin= 8.36D-02 ExpMax= 2.89D+03 ExpMxC= 4.35D+02 IAcc=3 IRadAn=         5 AccDes= 0.00D+00
 HarFok:  IExCor=  205 AccDes= 0.00D+00 IRadAn=         5 IDoV=-2 UseB2=F ITyADJ=14
 ICtDFT= 12500011 ScaDFX=  1.000000  1.000000  1.000000  1.000000
 GSVD:  LWork=        -825 too small for GESVD, short by        3500 words or        3500 for optimal perf.
 Range of M.O.s used for correlation:    26   450
 NBasis=   450 NAE=    89 NBE=    89 NFC=    25 NFV=     0
 NROrb=    425 NOA=    64 NOB=    64 NVA=   361 NVB=   361

 **** Warning!!: The largest alpha MO coefficient is  0.13060944D+02

 NEqPCM:  Using equilibrium solvation (IEInf=0, Eps=  24.8520, EpsInf=   1.8526)
 Orbital symmetries:
       Occupied  (A) (A) (A) (A) (A) (A) (A) (A) (A) (A) (A) (A)
                 (A) (A) (A) (A) (A) (A) (A) (A) (A) (A) (A) (A)
                 (A) (A) (A) (A) (A) (A) (A) (A) (A) (A) (A) (A)
                 (A) (A) (A) (A) (A) (A) (A) (A) (A) (A) (A) (A)
                 (A) (A) (A) (A) (A) (A) (A) (A) (A) (A) (A) (A)
                 (A) (A) (A) (A) (A) (A) (A) (A) (A) (A) (A) (A)
                 (A) (A) (A) (A) (A) (A) (A) (A) (A) (A) (A) (A)
                 (A) (A) (A) (A) (A)
       Virtual   (A) (A) (A) (A) (A) (A) (A) (A) (A) (A) (A) (A)
                 (A) (A) (A) (A) (A) (A) (A) (A) (A) (A) (A) (A)
                 (A) (A) (A) (A) (A) (A) (A) (A) (A) (A) (A) (A)
                 (A) (A) (A) (A) (A) (A) (A) (A) (A) (A) (A) (A)
                 (A) (A) (A) (A) (A) (A) (A) (A) (A) (A) (A) (A)
                 (A) (A) (A) (A) (A) (A) (A) (A) (A) (A) (A) (A)
                 (A) (A) (A) (A) (A) (A) (A) (A) (A) (A) (A) (A)
                 (A) (A) (A) (A) (A) (A) (A) (A) (A) (A) (A) (A)
                 (A) (A) (A) (A) (A) (A) (A) (A) (A) (A) (A) (A)
                 (A) (A) (A) (A) (A) (A) (A) (A) (A) (A) (A) (A)
                 (A) (A) (A) (A) (A) (A) (A) (A) (A) (A) (A) (A)
                 (A) (A) (A) (A) (A) (A) (A) (A) (A) (A) (A) (A)
                 (A) (A) (A) (A) (A) (A) (A) (A) (A) (A) (A) (A)
                 (A) (A) (A) (A) (A) (A) (A) (A) (A) (A) (A) (A)
                 (A) (A) (A) (A) (A) (A) (A) (A) (A) (A) (A) (A)
                 (A) (A) (A) (A) (A) (A) (A) (A) (A) (A) (A) (A)
                 (A) (A) (A) (A) (A) (A) (A) (A) (A) (A) (A) (A)
                 (A) (A) (A) (A) (A) (A) (A) (A) (A) (A) (A) (A)
                 (A) (A) (A) (A) (A) (A) (A) (A) (A) (A) (A) (A)
                 (A) (A) (A) (A) (A) (A) (A) (A) (A) (A) (A) (A)
                 (A) (A) (A) (A) (A) (A) (A) (A) (A) (A) (A) (A)
                 (A) (A) (A) (A) (A) (A) (A) (A) (A) (A) (A) (A)
                 (A) (A) (A) (A) (A) (A) (A) (A) (A) (A) (A) (A)
                 (A) (A) (A) (A) (A) (A) (A) (A) (A) (A) (A) (A)
                 (A) (A) (A) (A) (A) (A) (A) (A) (A) (A) (A) (A)
                 (A) (A) (A) (A) (A) (A) (A) (A) (A) (A) (A) (A)
                 (A) (A) (A) (A) (A) (A) (A) (A) (A) (A) (A) (A)
                 (A) (A) (A) (A) (A) (A) (A) (A) (A) (A) (A) (A)
                 (A) (A) (A) (A) (A) (A) (A) (A) (A) (A) (A) (A)
                 (A) (A) (A) (A) (A) (A) (A) (A) (A) (A) (A) (A)
                 (A)
    20 initial guesses have been made.
 Convergence on wavefunction:    0.000001000000000
 Iteration     1 Dimension    20 NMult     0 NNew     20
 CISAX will form    20 AO SS matrices at one time.
 Iteration     2 Dimension    30 NMult    20 NNew     10
 Iteration     3 Dimension    40 NMult    30 NNew     10
 Iteration     4 Dimension    50 NMult    40 NNew     10
 Iteration     5 Dimension    60 NMult    50 NNew     10
 Iteration     6 Dimension    70 NMult    60 NNew     10
 Iteration     7 Dimension    80 NMult    70 NNew     10
 Iteration     8 Dimension    90 NMult    80 NNew     10
 Iteration     9 Dimension    98 NMult    90 NNew      8
 Iteration    10 Dimension   102 NMult    98 NNew      4
 Iteration    11 Dimension   106 NMult   102 NNew      4
 Iteration    12 Dimension   108 NMult   106 NNew      2
 Iteration    13 Dimension   110 NMult   108 NNew      2
 Iteration    14 Dimension   112 NMult   110 NNew      2
 Iteration    15 Dimension   114 NMult   112 NNew      2
 Iteration    16 Dimension   116 NMult   114 NNew      2
 ***********************************************************************
 Excited states from <AA,BB:AA,BB> singles matrix:
 ***********************************************************************
 
 Ground to excited state transition densities written to RWF  633
 Ground to excited state transition electric dipole moments (Au):
       state          X           Y           Z        Dip. S.      Osc.
         1        -0.0000      0.2239      0.0000      0.0501      0.0030
         2        -0.0001     -3.7704      0.0000     14.2163      0.8846
         3         0.0000      0.6348     -0.0000      0.4029      0.0355
         4         0.9353     -0.0000     -0.0144      0.8749      0.0837
         5        -0.0001      0.1374      0.0003      0.0189      0.0021
 Ground to excited state transition velocity dipole moments (Au):
       state          X           Y           Z        Dip. S.      Osc.
         1         0.0000     -0.0201     -0.0000      0.0004      0.0030
         2         0.0000      0.3539      0.0000      0.1252      0.8944
         3        -0.0000     -0.0875      0.0000      0.0077      0.0387
         4        -0.1365      0.0000      0.0021      0.0186      0.0866
         5         0.0000     -0.0265     -0.0000      0.0007      0.0028
 Ground to excited state transition magnetic dipole moments (Au):
       state          X           Y           Z
         1         0.1419      0.0000     -0.0220
         2         0.0224      0.0000      0.5059
         3         0.0142     -0.0000      1.6996
         4         0.0000      0.0117     -0.0000
         5        -0.0025      0.0001     -0.0976
 Ground to excited state transition velocity quadrupole moments (Au):
       state          XX          YY          ZZ          XY          XZ          YZ
         1         0.0000     -0.0000      0.0000      0.0490     -0.0000      0.0078
         2        -0.0000      0.0000     -0.0000     -0.8512     -0.0000     -0.0138
         3        -0.0000      0.0000     -0.0000     -0.5710      0.0000      0.0087
         4         0.4654     -0.4472     -0.0008     -0.0000      0.0046      0.0000
         5         0.0000     -0.0000     -0.0000     -0.0231     -0.0004     -0.0002
 <0|del|b> * <b|rxdel|0> + <0|del|b> * <b|delr+rdel|0>
 Rotatory Strengths (R) in cgs (10**-40 erg-esu-cm/Gauss)
       state          XX          YY          ZZ    R(velocity)    E-M Angle
         1        -0.0004      0.0021      0.0019      0.0012       90.00
         2         0.0148      0.0008     -0.0022      0.0044       90.00
         3         0.0063      0.0066     -0.0004      0.0042       90.00
         4        -0.0000     -0.0036      0.0015     -0.0007       90.00
         5        -0.0145      0.0078      0.0126      0.0020       90.00
 1/2[<0|r|b>*<b|rxdel|0> + (<0|rxdel|b>*<b|r|0>)*]
 Rotatory Strengths (R) in cgs (10**-40 erg-esu-cm/Gauss)
       state          XX          YY          ZZ     R(length)
         1         0.0037     -0.0002      0.0001      0.0012
         2         0.0010      0.0118     -0.0002      0.0042
         3        -0.0001      0.0025      0.0071      0.0031
         4        -0.0022      0.0002     -0.0000     -0.0007
         5        -0.0001     -0.0127      0.0193      0.0022
  1/2[<0|del|b>*<b|r|0> + (<0|r|b>*<b|del|0>)*] (Au)
       state          X           Y           Z        Dip. S.   Osc.(frdel)
         1        -0.0000     -0.0045     -0.0000      0.0045      0.0030
         2        -0.0000     -1.3342      0.0000      1.3342      0.8895
         3        -0.0000     -0.0555     -0.0000      0.0555      0.0370
         4        -0.1276     -0.0000     -0.0000      0.1277      0.0851
         5        -0.0000     -0.0036     -0.0000      0.0036      0.0024

 Excitation energies and oscillator strengths:
 
 Excited State   1:      Singlet-A      2.4219 eV  511.93 nm  f=0.0030  <S**2>=0.000
      83 -> 90        -0.10411
      89 -> 90         0.69533
 
 Excited State   2:      Singlet-A      2.5400 eV  488.13 nm  f=0.8846  <S**2>=0.000
      88 -> 90         0.70158
 This state for optimization and/or second-order correction.
 Total Energy, E(TD-HF/TD-DFT) =  -1123.72377979    
 Copying the excited state density for this state as the 1-particle RhoCI density.
 
 Excited State   3:      Singlet-A      3.5922 eV  345.15 nm  f=0.0355  <S**2>=0.000
      87 -> 90         0.69706
 
 Excited State   4:      Singlet-A      3.9041 eV  317.57 nm  f=0.0837  <S**2>=0.000
      86 -> 90         0.70380
 
 Excited State   5:      Singlet-A      4.5280 eV  273.82 nm  f=0.0021  <S**2>=0.000
      85 -> 90         0.69982
 SavETr:  write IOETrn=   770 NScale= 10 NData=  16 NLR=1 NState=    5 LETran=     100.
          IDoAtm=111111111111111111111111111111111111111111111
 NEqPCM:  Using equilibrium solvation (IEInf=0, Eps=  24.8520, EpsInf=   1.8526)
          Differentiating once with respect to electric field.
                with respect to dipole field.
          Differentiating once with respect to nuclear coordinates.
          There are     1 degrees of freedom in the 1st order CPHF.  IDoFFX=0 NUNeed=     1.
 LinEq1:  Iter=  0 NonCon=     1 RMS=2.86D-03 Max=3.23D-01 NDo=     1
 AX will form     1 AO Fock derivatives at one time.
 LinEq1:  Iter=  1 NonCon=     1 RMS=1.12D-03 Max=1.25D-01 NDo=     1
 LinEq1:  Iter=  2 NonCon=     1 RMS=6.92D-04 Max=5.02D-02 NDo=     1
 LinEq1:  Iter=  3 NonCon=     1 RMS=1.41D-04 Max=5.83D-03 NDo=     1
 LinEq1:  Iter=  4 NonCon=     1 RMS=8.78D-05 Max=5.17D-03 NDo=     1
 LinEq1:  Iter=  5 NonCon=     1 RMS=3.54D-05 Max=1.84D-03 NDo=     1
 LinEq1:  Iter=  6 NonCon=     1 RMS=2.05D-05 Max=1.13D-03 NDo=     1
 LinEq1:  Iter=  7 NonCon=     1 RMS=7.92D-06 Max=3.00D-04 NDo=     1
 LinEq1:  Iter=  8 NonCon=     1 RMS=3.72D-06 Max=2.08D-04 NDo=     1
 LinEq1:  Iter=  9 NonCon=     1 RMS=1.45D-06 Max=8.19D-05 NDo=     1
 LinEq1:  Iter= 10 NonCon=     1 RMS=6.58D-07 Max=3.49D-05 NDo=     1
 LinEq1:  Iter= 11 NonCon=     1 RMS=2.11D-07 Max=8.80D-06 NDo=     1
 LinEq1:  Iter= 12 NonCon=     1 RMS=1.11D-07 Max=6.48D-06 NDo=     1
 LinEq1:  Iter= 13 NonCon=     1 RMS=3.67D-08 Max=1.09D-06 NDo=     1
 LinEq1:  Iter= 14 NonCon=     1 RMS=1.29D-08 Max=5.54D-07 NDo=     1
 LinEq1:  Iter= 15 NonCon=     1 RMS=6.53D-09 Max=3.16D-07 NDo=     1
 LinEq1:  Iter= 16 NonCon=     1 RMS=2.49D-09 Max=9.45D-08 NDo=     1
 LinEq1:  Iter= 17 NonCon=     1 RMS=1.01D-09 Max=4.74D-08 NDo=     1
 LinEq1:  Iter= 18 NonCon=     1 RMS=3.72D-10 Max=1.85D-08 NDo=     1
 LinEq1:  Iter= 19 NonCon=     1 RMS=1.41D-10 Max=8.78D-09 NDo=     1
 LinEq1:  Iter= 20 NonCon=     1 RMS=7.21D-11 Max=4.00D-09 NDo=     1
 LinEq1:  Iter= 21 NonCon=     1 RMS=2.54D-11 Max=1.48D-09 NDo=     1
 LinEq1:  Iter= 22 NonCon=     0 RMS=9.49D-12 Max=4.12D-10 NDo=     1
 Linear equations converged to 1.000D-10 1.000D-09 after    22 iterations.
          There are     1 degrees of freedom in the 1st order CPHF.  IDoFFX=0 NUNeed=     1.
 End of Minotr F.D. properties file   721 does not exist.
 End of Minotr F.D. properties file   722 does not exist.
 End of Minotr F.D. properties file   788 does not exist.
   1 Symmetry operations used in ECPInt.
 ECPInt:  NShTT=   22155 NPrTT=   80585 LenC2=   19733 LenP2D=   49099.
 LDataN:  DoStor=T MaxTD1= 5 Len=  102
 Number of processors reduced to  32 by ecpmxn.
 Symmetrizing basis deriv contribution to polar:
 IMax=3 JMax=2 DiffMx= 0.00D+00
 G2DrvN: will do    46 centers at a time, making    1 passes.
 Calling FoFCou, ICntrl=  3107 FMM=F I1Cent=   0 AccDes= 0.00D+00.
 NEqPCM:  Using equilibrium solvation (IEInf=0, Eps=  24.8520, EpsInf=   1.8526)
 G2PCM: DoFxE=T DoFxN=T DoGrad=T DoDP/DQ/DG/TGxP=FFFF NFrqRd=   0 IEInf=0 SqF1=F DoCFld=F IF1Alg=4.
 G2DrvN: will do    46 centers at a time, making    1 passes.
 Calling FoFCou, ICntrl=  3107 FMM=F I1Cent=   0 AccDes= 0.00D+00.
 NEqPCM:  Using equilibrium solvation (IEInf=0, Eps=  24.8520, EpsInf=   1.8526)
 G2PCM: DoFxE=T DoFxN=F DoGrad=F DoDP/DQ/DG/TGxP=FFFF NFrqRd=   0 IEInf=0 SqF1=F DoCFld=F IF1Alg=4.
 G2DrvN: will do    46 centers at a time, making    1 passes.
 Calling FoFCou, ICntrl=  3107 FMM=F I1Cent=   0 AccDes= 0.00D+00.
 NEqPCM:  Using equilibrium solvation (IEInf=0, Eps=  24.8520, EpsInf=   1.8526)
 G2PCM: DoFxE=T DoFxN=F DoGrad=F DoDP/DQ/DG/TGxP=FFFF NFrqRd=   0 IEInf=0 SqF1=T DoCFld=F IF1Alg=4.
 End of G2Drv F.D. properties file   721 does not exist.
 End of G2Drv F.D. properties file   722 does not exist.
 End of G2Drv F.D. properties file   788 does not exist.
          IDoAtm=111111111111111111111111111111111111111111111
 NEqPCM:  Using equilibrium solvation (IEInf=0, Eps=  24.8520, EpsInf=   1.8526)
          Differentiating once with respect to electric field.
                with respect to dipole field.
          Differentiating once with respect to nuclear coordinates.
 CalDSu exits because no D1Ps are significant.
          There are   138 degrees of freedom in the 1st order CPHF.  IDoFFX=6 NUNeed=   138.
    135 vectors produced by pass  0 Test12= 3.21D-14 1.00D-09 XBig12= 3.74D+02 1.70D+01.
 AX will form   135 AO Fock derivatives at one time.
    135 vectors produced by pass  1 Test12= 3.21D-14 1.00D-09 XBig12= 2.45D+01 6.25D-01.
    135 vectors produced by pass  2 Test12= 3.21D-14 1.00D-09 XBig12= 3.19D-01 9.88D-02.
    135 vectors produced by pass  3 Test12= 3.21D-14 1.00D-09 XBig12= 2.28D-03 6.86D-03.
    135 vectors produced by pass  4 Test12= 3.21D-14 1.00D-09 XBig12= 1.51D-05 4.58D-04.
    135 vectors produced by pass  5 Test12= 3.21D-14 1.00D-09 XBig12= 5.40D-08 2.34D-05.
     84 vectors produced by pass  6 Test12= 3.21D-14 1.00D-09 XBig12= 1.49D-10 1.21D-06.
      9 vectors produced by pass  7 Test12= 3.21D-14 1.00D-09 XBig12= 3.80D-13 6.73D-08.
      3 vectors produced by pass  8 Test12= 3.21D-14 1.00D-09 XBig12= 1.01D-15 3.26D-09.
 InvSVY:  IOpt=1 It=  1 EMax= 2.49D-14
 Solved reduced A of dimension   906 with   138 vectors.
 Isotropic polarizability for W=    0.000000      413.83 Bohr**3.
 End of Minotr F.D. properties file   721 does not exist.
 End of Minotr F.D. properties file   722 does not exist.
 End of Minotr F.D. properties file   788 does not exist.
 This link is doing   138 degrees of freedom
 Form MO integral derivatives with frozen-active canonical formalism.
 CISSec: MDV=   17179849336
 Doing TD-HF/TD-DFT second derivatives, IDoFFX=6 IOneXC=4 IRadAn=         1.
 Frozen orbitals handled with amplitudes over full window.
 CISAX will form   138 AO SS matrices at one time.
    135 vectors produced by pass  0 Test12= 4.62D-14 1.00D-09 XBig12= 9.01D+01 5.73D+00.
 AX will form   135 AO Fock derivatives at one time.
    135 vectors produced by pass  1 Test12= 4.62D-14 1.00D-09 XBig12= 2.74D+01 4.55D+00.
    135 vectors produced by pass  2 Test12= 4.62D-14 1.00D-09 XBig12= 2.56D+00 3.46D-01.
    135 vectors produced by pass  3 Test12= 4.62D-14 1.00D-09 XBig12= 2.07D-02 2.55D-02.
    135 vectors produced by pass  4 Test12= 4.62D-14 1.00D-09 XBig12= 1.47D-04 1.83D-03.
    131 vectors produced by pass  5 Test12= 4.62D-14 1.00D-09 XBig12= 1.17D-06 1.28D-04.
     81 vectors produced by pass  6 Test12= 4.62D-14 1.00D-09 XBig12= 9.97D-09 9.45D-06.
     28 vectors produced by pass  7 Test12= 4.62D-14 1.00D-09 XBig12= 5.92D-11 7.14D-07.
      2 vectors produced by pass  8 Test12= 4.62D-14 1.00D-09 XBig12= 4.01D-13 6.69D-08.
      2 vectors produced by pass  9 Test12= 4.62D-14 1.00D-09 XBig12= 2.62D-15 4.43D-09.
 InvSVY:  IOpt=1 It=  1 EMax= 2.93D-14
 Solved reduced A of dimension   919 with   138 vectors.
 Tx.T = -1.08D-04 for pert.     1
 Tx.T =  1.73D-05 for pert.     5
 Tx.T = -1.73D-05 for pert.     8
 Tx.T = -1.51D-05 for pert.     3
 Tx.T =  1.04D-05 for pert.    52
 Tx.T = -7.95D-06 for pert.    10
 Tx.T = -6.79D-06 for pert.    55
 Tx.T = -6.61D-06 for pert.    58
 Tx.T =  6.28D-06 for pert.    26
 Tx.T = -6.28D-06 for pert.    20
 SavDET:  read IOETrn=   770 NScale= 10 NData=  16 NLR=1 NState=    5 NDeriv=    0 LETran=     100.
 SavDET: write IOETrn=   770 NScale= 10 NData=  16 NLR=1 NState=    5 NDeriv=  138 LETran=    2308.
 TDDxLx will form   138 C1x/S1x matrices at one time.
 Interchange theorem applied.
 D1PCM: PCM CHGder 1st derivatives, ID1Alg=3 FixD1E=F DoIter=F DoCFld=F I1PDM=6.

 **********************************************************************

            Population analysis using the SCF density.

 **********************************************************************

 Orbital symmetries:
       Occupied  (A) (A) (A) (A) (A) (A) (A) (A) (A) (A) (A) (A)
                 (A) (A) (A) (A) (A) (A) (A) (A) (A) (A) (A) (A)
                 (A) (A) (A) (A) (A) (A) (A) (A) (A) (A) (A) (A)
                 (A) (A) (A) (A) (A) (A) (A) (A) (A) (A) (A) (A)
                 (A) (A) (A) (A) (A) (A) (A) (A) (A) (A) (A) (A)
                 (A) (A) (A) (A) (A) (A) (A) (A) (A) (A) (A) (A)
                 (A) (A) (A) (A) (A) (A) (A) (A) (A) (A) (A) (A)
                 (A) (A) (A) (A) (A)
       Virtual   (A) (A) (A) (A) (A) (A) (A) (A) (A) (A) (A) (A)
                 (A) (A) (A) (A) (A) (A) (A) (A) (A) (A) (A) (A)
                 (A) (A) (A) (A) (A) (A) (A) (A) (A) (A) (A) (A)
                 (A) (A) (A) (A) (A) (A) (A) (A) (A) (A) (A) (A)
                 (A) (A) (A) (A) (A) (A) (A) (A) (A) (A) (A) (A)
                 (A) (A) (A) (A) (A) (A) (A) (A) (A) (A) (A) (A)
                 (A) (A) (A) (A) (A) (A) (A) (A) (A) (A) (A) (A)
                 (A) (A) (A) (A) (A) (A) (A) (A) (A) (A) (A) (A)
                 (A) (A) (A) (A) (A) (A) (A) (A) (A) (A) (A) (A)
                 (A) (A) (A) (A) (A) (A) (A) (A) (A) (A) (A) (A)
                 (A) (A) (A) (A) (A) (A) (A) (A) (A) (A) (A) (A)
                 (A) (A) (A) (A) (A) (A) (A) (A) (A) (A) (A) (A)
                 (A) (A) (A) (A) (A) (A) (A) (A) (A) (A) (A) (A)
                 (A) (A) (A) (A) (A) (A) (A) (A) (A) (A) (A) (A)
                 (A) (A) (A) (A) (A) (A) (A) (A) (A) (A) (A) (A)
                 (A) (A) (A) (A) (A) (A) (A) (A) (A) (A) (A) (A)
                 (A) (A) (A) (A) (A) (A) (A) (A) (A) (A) (A) (A)
                 (A) (A) (A) (A) (A) (A) (A) (A) (A) (A) (A) (A)
                 (A) (A) (A) (A) (A) (A) (A) (A) (A) (A) (A) (A)
                 (A) (A) (A) (A) (A) (A) (A) (A) (A) (A) (A) (A)
                 (A) (A) (A) (A) (A) (A) (A) (A) (A) (A) (A) (A)
                 (A) (A) (A) (A) (A) (A) (A) (A) (A) (A) (A) (A)
                 (A) (A) (A) (A) (A) (A) (A) (A) (A) (A) (A) (A)
                 (A) (A) (A) (A) (A) (A) (A) (A) (A) (A) (A) (A)
                 (A) (A) (A) (A) (A) (A) (A) (A) (A) (A) (A) (A)
                 (A) (A) (A) (A) (A) (A) (A) (A) (A) (A) (A) (A)
                 (A) (A) (A) (A) (A) (A) (A) (A) (A) (A) (A) (A)
                 (A) (A) (A) (A) (A) (A) (A) (A) (A) (A) (A) (A)
                 (A) (A) (A) (A) (A) (A) (A) (A) (A) (A) (A) (A)
                 (A) (A) (A) (A) (A) (A) (A) (A) (A) (A) (A) (A)
                 (A)
 The electronic state is 1-A.
 Alpha  occ. eigenvalues --  -25.19400 -25.19347 -14.78314 -14.78312 -14.76367
 Alpha  occ. eigenvalues --  -10.61594 -10.60679 -10.60676 -10.60424 -10.59289
 Alpha  occ. eigenvalues --  -10.59283 -10.57706 -10.57702 -10.56196 -10.56182
 Alpha  occ. eigenvalues --  -10.56053 -10.55245 -10.55244 -10.54966 -10.54965
 Alpha  occ. eigenvalues --  -10.54874 -10.54872 -10.54645 -10.54645  -7.13189
 Alpha  occ. eigenvalues --   -1.27718  -1.24233  -1.08457  -1.06570  -1.02484
 Alpha  occ. eigenvalues --   -0.94469  -0.90057  -0.89043  -0.88179  -0.85004
 Alpha  occ. eigenvalues --   -0.83531  -0.83449  -0.78717  -0.78480  -0.78375
 Alpha  occ. eigenvalues --   -0.74960  -0.70314  -0.69024  -0.68425  -0.66236
 Alpha  occ. eigenvalues --   -0.63417  -0.62696  -0.62094  -0.60141  -0.59853
 Alpha  occ. eigenvalues --   -0.58720  -0.57917  -0.56428  -0.55012  -0.54208
 Alpha  occ. eigenvalues --   -0.51809  -0.51525  -0.51016  -0.50031  -0.49384
 Alpha  occ. eigenvalues --   -0.49345  -0.49056  -0.48709  -0.47867  -0.47749
 Alpha  occ. eigenvalues --   -0.47683  -0.47237  -0.46064  -0.46058  -0.46008
 Alpha  occ. eigenvalues --   -0.45911  -0.45653  -0.45374  -0.44422  -0.44078
 Alpha  occ. eigenvalues --   -0.43654  -0.43441  -0.42726  -0.42089  -0.41128
 Alpha  occ. eigenvalues --   -0.39844  -0.39586  -0.37056  -0.33632  -0.31577
 Alpha  occ. eigenvalues --   -0.30836  -0.29841  -0.25297  -0.24175
 Alpha virt. eigenvalues --   -0.07883   0.02497   0.03679   0.06601   0.08233
 Alpha virt. eigenvalues --    0.10329   0.10824   0.11671   0.12075   0.12800
 Alpha virt. eigenvalues --    0.13068   0.13122   0.13786   0.14582   0.14758
 Alpha virt. eigenvalues --    0.15189   0.16870   0.16936   0.17229   0.17804
 Alpha virt. eigenvalues --    0.19421   0.20339   0.20394   0.20459   0.20542
 Alpha virt. eigenvalues --    0.20669   0.21039   0.21506   0.22364   0.22622
 Alpha virt. eigenvalues --    0.24532   0.25337   0.25954   0.26276   0.26332
 Alpha virt. eigenvalues --    0.27635   0.28529   0.28668   0.29885   0.29984
 Alpha virt. eigenvalues --    0.31435   0.32295   0.33238   0.34318   0.34889
 Alpha virt. eigenvalues --    0.35103   0.37253   0.38090   0.38509   0.39467
 Alpha virt. eigenvalues --    0.40589   0.41741   0.42180   0.42259   0.43441
 Alpha virt. eigenvalues --    0.43445   0.44597   0.45342   0.45523   0.46646
 Alpha virt. eigenvalues --    0.46992   0.47560   0.47831   0.47911   0.48014
 Alpha virt. eigenvalues --    0.49728   0.49830   0.50337   0.51651   0.51664
 Alpha virt. eigenvalues --    0.53287   0.53416   0.53930   0.54696   0.55019
 Alpha virt. eigenvalues --    0.55185   0.56300   0.57046   0.59311   0.60146
 Alpha virt. eigenvalues --    0.60742   0.61152   0.61505   0.62072   0.62305
 Alpha virt. eigenvalues --    0.62784   0.63592   0.65763   0.66306   0.67140
 Alpha virt. eigenvalues --    0.68013   0.68651   0.69078   0.69833   0.70113
 Alpha virt. eigenvalues --    0.70195   0.70591   0.71386   0.71943   0.72150
 Alpha virt. eigenvalues --    0.72318   0.72398   0.73392   0.73425   0.73759
 Alpha virt. eigenvalues --    0.74141   0.74458   0.74748   0.75512   0.75518
 Alpha virt. eigenvalues --    0.76362   0.76707   0.76842   0.77404   0.77433
 Alpha virt. eigenvalues --    0.78729   0.78918   0.78950   0.79041   0.79887
 Alpha virt. eigenvalues --    0.80372   0.80500   0.81947   0.82087   0.82186
 Alpha virt. eigenvalues --    0.83443   0.84441   0.84479   0.85060   0.86796
 Alpha virt. eigenvalues --    0.88036   0.88886   0.89539   0.90300   0.90853
 Alpha virt. eigenvalues --    0.93770   0.94960   0.95461   0.95702   0.97477
 Alpha virt. eigenvalues --    0.97483   1.00302   1.01099   1.04320   1.04848
 Alpha virt. eigenvalues --    1.06319   1.09103   1.11341   1.12055   1.12163
 Alpha virt. eigenvalues --    1.12309   1.15759   1.16431   1.17613   1.20384
 Alpha virt. eigenvalues --    1.20965   1.21396   1.22052   1.23135   1.23847
 Alpha virt. eigenvalues --    1.25372   1.27225   1.28399   1.28441   1.28643
 Alpha virt. eigenvalues --    1.29628   1.31245   1.32073   1.32268   1.33681
 Alpha virt. eigenvalues --    1.34760   1.35025   1.37032   1.37351   1.37742
 Alpha virt. eigenvalues --    1.37785   1.38946   1.41120   1.41349   1.42827
 Alpha virt. eigenvalues --    1.44166   1.45439   1.45861   1.48175   1.49263
 Alpha virt. eigenvalues --    1.51113   1.53730   1.56014   1.56181   1.56948
 Alpha virt. eigenvalues --    1.58375   1.58896   1.59352   1.60403   1.60569
 Alpha virt. eigenvalues --    1.60898   1.62183   1.62556   1.63680   1.64613
 Alpha virt. eigenvalues --    1.66988   1.70277   1.70586   1.70616   1.72112
 Alpha virt. eigenvalues --    1.72133   1.72521   1.72629   1.73672   1.74868
 Alpha virt. eigenvalues --    1.75394   1.77169   1.78185   1.78217   1.78654
 Alpha virt. eigenvalues --    1.78670   1.80027   1.80076   1.80437   1.81296
 Alpha virt. eigenvalues --    1.81745   1.82049   1.82074   1.82122   1.84466
 Alpha virt. eigenvalues --    1.85080   1.85092   1.85360   1.85364   1.85919
 Alpha virt. eigenvalues --    1.86302   1.87287   1.88200   1.89138   1.90031
 Alpha virt. eigenvalues --    1.90192   1.90268   1.90526   1.91027   1.91064
 Alpha virt. eigenvalues --    1.94750   1.95471   1.97136   1.97265   1.98523
 Alpha virt. eigenvalues --    1.99045   1.99519   2.00858   2.00957   2.01778
 Alpha virt. eigenvalues --    2.01982   2.02226   2.06403   2.06758   2.07660
 Alpha virt. eigenvalues --    2.07678   2.07995   2.10656   2.11522   2.11809
 Alpha virt. eigenvalues --    2.13924   2.14640   2.15622   2.16672   2.16772
 Alpha virt. eigenvalues --    2.18978   2.19051   2.19390   2.20759   2.22726
 Alpha virt. eigenvalues --    2.23511   2.24475   2.24996   2.25410   2.26134
 Alpha virt. eigenvalues --    2.27542   2.27810   2.28276   2.28308   2.29464
 Alpha virt. eigenvalues --    2.30419   2.31574   2.32287   2.37528   2.38159
 Alpha virt. eigenvalues --    2.39551   2.40137   2.40867   2.42847   2.44134
[...]
 50,0.00142505,0.00044949,-0.00010780,0.00068493,0.00130475,0.00022503,
 -0.01303122,0.01504351,0.00098986,-0.00115693,-0.00083249,-0.00004631,
 0.00027689,0.00089061,-0.00042229,0.00024537,0.00085323,0.00053616,-0.
 00016536,-0.00014086,0.00035703,0.00008460,-0.00016133,-0.00019257,-0.
 00005846,0.00008357,0.00013588,-0.00012940,0.00002933,-0.00005264,0.00
 003153,-0.00001496,-0.00000974,-0.00010194,0.00001727,0.00000917,-0.00
 000118,-0.00000327,0.00000313,0.00019692,0.00005952,0.00006615,-0.0000
 2434,0.00000141,0.00000303,-0.00002202,-0.00001474,-0.00000233,-0.0002
 1024,-0.00006860,0.00000142,0.00000656,0.00001920,0.00001537,0.0000093
 3,0.00001272,-0.00002376,-0.00009028,0.00011476,0.00015771,-0.00001704
 ,-0.00004704,-0.00002465,-0.00000160,0.00007395,-0.00009119,-0.0000453
 9,0.00003397,-0.00004404,0.00050802,-0.00019494,-0.00008782,-0.0000229
 9,0.00006572,-0.00001994,-0.00000540,0.00007941,0.00004108,0.00004111,
 0.00003229,0.00000081,-0.00059229,0.00035459,0.00005482,0.00002522,-0.
 00016732,-0.00007576,0.00007236,0.00001516,0.00006494,0.00001328,0.000
 00883,-0.00002000,0.51300163,-0.00132186,-0.00125251,-0.00008182,-0.00
 238387,-0.00780628,-0.00006947,0.00233657,0.00285000,-0.00029955,0.000
 13742,-0.00008932,0.00006820,0.00028353,-0.00018822,-0.00002561,-0.000
 49822,0.00016976,0.00000626,-0.00000026,0.00000449,-0.00000362,0.04217
 368,-0.10414323,-0.00168504,-0.00288786,-0.00055095,0.00006638,-0.0140
 4965,0.01089186,-0.00033103,0.00014623,0.00027144,0.00007974,0.0005861
 0,0.00026054,0.00011829,0.03925196,-0.00437513,-0.00050362,-0.00107708
 ,0.00017707,-0.00007523,0.00077195,-0.00220527,0.00001662,0.00094103,-
 0.00251766,-0.00023039,0.00007164,-0.00041312,0.00009883,0.00010413,-0
 .00008875,-0.00003908,-0.00005128,0.00000345,0.00002625,-0.00005663,0.
 00004553,-0.00004662,0.00001158,-0.00002682,-0.00000311,0.00000928,0.0
 0002125,-0.00001972,0.00000138,-0.00001643,0.00001105,0.00005924,0.000
 02333,0.00005945,-0.00000457,0.00000683,-0.00000090,-0.00000582,-0.000
 00317,-0.00000129,-0.00006224,-0.00002262,-0.00000253,0.00000223,0.000
 00390,0.00000511,0.00000367,0.00000272,-0.00000839,0.00007136,0.000034
 27,0.00004188,-0.00001268,-0.00004268,-0.00001717,-0.00001318,0.000004
 85,-0.00001562,-0.00000742,0.00000700,-0.00001361,0.00019924,-0.000141
 46,-0.00001551,0.00001566,0.00008078,-0.00000037,0.00001965,0.00007363
 ,-0.00000415,0.00001667,-0.00000794,-0.00000276,-0.00079986,0.00103891
 ,0.00013380,-0.00026294,-0.00019968,-0.00004006,-0.00015875,-0.0000945
 0,0.00000158,0.00006287,-0.00002303,0.00001015,0.00159764,0.61063998,-
 0.00017417,-0.00009607,-0.00009849,0.00016261,-0.00033342,0.00348719,0
 .00024571,0.00031483,0.00050401,0.00001062,-0.00017584,-0.00003300,0.0
 0018534,-0.00004133,0.00015588,-0.00014886,0.00010908,0.00003147,0.000
 00140,0.00000273,-0.00005461,0.00544537,-0.00224585,-0.06840798,0.0000
 8575,0.00002170,0.00323322,0.00045307,-0.00031036,0.01157071,-0.000103
 20,0.00000488,-0.00244504,-0.00002932,-0.00000370,-0.00044331,0.000901
 85,0.00018810,0.00259114,-0.00015279,0.00006975,0.00067052,0.00094125,
 -0.00117464,-0.00020607,-0.00078186,0.00093693,-0.00009854,-0.00018375
 ,-0.00004250,0.00004439,0.00013806,-0.00009662,-0.00005659,0.00000255,
 0.00008926,0.00005663,-0.00006247,0.00000960,-0.00003320,0.00000671,-0
 .00000430,0.00000526,-0.00004462,0.00001710,0.00000439,-0.00000220,-0.
 00000384,0.00000291,0.00004853,0.00002216,0.00003180,-0.00000249,0.000
 00123,0.00000035,-0.00000296,-0.00001131,0.00000241,-0.00003441,-0.000
 01599,-0.00000169,0.00000229,0.00000235,0.00000289,0.00000324,0.000002
 24,-0.00000518,-0.00000468,0.00002149,0.00009876,-0.00000767,-0.000040
 70,-0.00002272,-0.00000823,0.00003836,-0.00003876,-0.00000010,0.000003
 92,-0.00001149,0.00008036,-0.00001346,-0.00033106,-0.00001059,-0.00008
 342,0.00009719,0.00001884,0.00011960,0.00012219,0.00000469,0.00000127,
 0.00001800,0.00001333,-0.00019929,-0.00074894,-0.00006084,0.00008093,0
 .00017128,-0.00004093,0.00003553,0.00023126,0.00000152,0.00005675,0.00
 005693,-0.00131748,0.00249953,0.53076469,-0.00026078,-0.00056619,0.000
 01241,-0.00181976,-0.00133070,-0.00054382,0.00001394,0.00073382,0.0000
 1388,0.00002598,0.00049260,-0.00003702,-0.00015219,0.00000719,0.000005
 35,0.00006818,0.00007560,-0.00004045,0.00000704,-0.00000158,0.00000770
 ,-0.01958417,-0.01421625,0.02450542,-0.00154938,0.00130096,-0.00061955
 ,-0.00022882,0.00226213,-0.00017308,0.00011409,-0.00001873,0.00028118,
 0.00019713,-0.00007325,-0.00001383,0.00348349,-0.00143313,-0.00171522,
 -0.00126399,0.00028144,0.00142120,0.00060892,-0.00078632,-0.00070589,0
 .00018365,0.00018188,-0.00004391,0.00012674,0.00003484,0.00003391,-0.0
 0002944,-0.00000713,-0.00002172,-0.00002091,-0.00002744,0.00002576,-0.
 00004206,0.00000480,-0.00001565,0.00000194,-0.00000541,-0.00000150,-0.
 00000537,-0.00000283,-0.00000277,0.00000438,-0.00000365,0.00000012,0.0
 0006661,0.00000651,0.00001706,-0.00000927,0.00000349,0.00000099,-0.000
 00870,0.00000278,-0.00000306,-0.00007759,-0.00001978,0.00000271,0.0000
 0141,0.00000731,0.00000526,0.00000196,0.00000465,-0.00000812,0.0000913
 4,-0.00001840,-0.00001855,-0.00000998,-0.00001128,-0.00000002,-0.00002
 278,-0.00002211,0.00002254,0.00000204,0.00000287,0.00000735,-0.0000207
 4,-0.00001726,0.00001099,0.00001409,0.00002144,-0.00000137,0.00002219,
 0.00001962,-0.00001228,0.00000250,-0.00000498,-0.00000610,-0.00005032,
 0.00030050,-0.00002005,-0.00009785,-0.00004427,-0.00002333,-0.00016034
 ,-0.00007059,-0.00005960,-0.00001634,-0.00004465,0.00000908,-0.0926852
 8,-0.04978757,0.09742552,0.10571890,0.00104877,0.00077908,0.00009931,-
 0.00091224,0.00041894,0.00025023,-0.00040945,-0.00135811,0.00005996,-0
 .00008946,0.00030656,-0.00002473,-0.00022342,0.00011427,0.00000688,0.0
 0033459,-0.00000692,-0.00006175,-0.00000162,-0.00000607,-0.00000211,-0
 .00096903,0.00510313,-0.00842402,-0.00010047,-0.00004672,-0.00011493,0
 .00045056,0.00049736,0.00066157,0.00006977,0.00006130,0.00013011,-0.00
 067128,-0.00026722,0.00019967,0.00097022,-0.00173732,0.00051599,0.0021
 3027,-0.00020106,-0.00139624,-0.00064374,-0.00074307,0.00134680,-0.000
 41902,0.00019058,0.00006871,0.00000959,0.00000870,-0.00010236,-0.00000
 389,0.00004241,0.00004805,0.00001825,-0.00001219,-0.00003331,0.0000370
 8,-0.00000627,0.00001221,-0.00000786,0.00000392,0.00000314,0.00002275,
 -0.00000182,-0.00000081,-0.00000091,0.00000194,-0.00000059,-0.00005760
 ,-0.00001433,-0.00001737,0.00000829,-0.00000172,-0.00000087,0.00000675
 ,0.00000232,0.00000123,0.00006417,0.00001967,-0.00000144,-0.00000175,-
 0.00000579,-0.00000440,-0.00000247,-0.00000397,0.00000724,0.00000779,-
 0.00001957,-0.00001464,0.00000553,0.00000967,0.00000495,-0.00000058,-0
 .00000988,0.00001610,0.00000949,-0.00000742,0.00001076,-0.00006893,0.0
 0008012,-0.00008195,-0.00001986,-0.00006622,0.00002802,-0.00002230,0.0
 0000276,0.00006105,-0.00001445,0.00000045,0.00000947,0.00007632,-0.000
 03206,-0.00005793,-0.00000102,0.00004773,0.00002031,-0.00000396,0.0000
 0822,0.00001737,0.00001053,0.00000593,0.00000750,-0.04706476,-0.095360
 52,0.09400513,0.05504408,0.09638848,-0.00009046,0.00004912,-0.00000711
 ,0.00088130,0.00029987,-0.00017166,0.00010445,0.00002477,-0.00005696,0
 .00000471,-0.00019711,0.00006453,0.00003386,-0.00000017,-0.00004173,-0
 .00009380,-0.00016363,0.00002703,-0.00000608,0.00000594,0.00000536,0.0
 0073876,-0.00243903,0.00277816,0.00026356,-0.00074954,-0.00008346,-0.0
 0169354,-0.00026676,-0.00143035,0.00000198,0.00002224,0.00007535,-0.00
 002577,0.00030878,0.00006169,-0.00053211,0.00065813,0.00090584,0.00104
 985,-0.00067177,-0.00064759,-0.00069077,0.00135531,-0.00013135,-0.0001
 1547,0.00023454,0.00023950,-0.00003805,-0.00001870,0.00001360,0.000007
 05,-0.00000593,-0.00000900,0.00000050,0.00001362,0.00000585,0.00000218
 ,-0.00000018,0.00000116,0.00000169,0.00000083,-0.00000041,-0.00000580,
 0.00000027,0.00000085,-0.00000112,0.00000101,-0.00000058,-0.00000056,0
 .00000239,-0.00000147,0.00000013,-0.00000065,-0.00000001,-0.00000032,-
 0.00000119,0.00000048,0.00000105,-0.00000108,-0.00000046,0.00000006,0.
 00000019,0.00000011,0.00000015,0.00000017,0.00000013,-0.00003243,0.000
 01486,-0.00000020,-0.00000383,0.00000513,-0.00000231,0.00000662,0.0000
 0810,-0.00001135,-0.00000729,0.00000222,-0.00000843,0.00001811,0.00000
 205,0.00009664,0.00000081,0.00002648,-0.00004637,-0.00001347,-0.000060
 18,-0.00002743,-0.00000028,0.00000962,-0.00000220,-0.00007730,0.000015
 02,0.00021421,-0.00001062,-0.00002891,-0.00001498,0.00005486,0.0000178
 2,-0.00000942,-0.00000042,-0.00000019,-0.00001419,0.09623299,0.0936004
 6,-0.21105323,-0.10414211,-0.10113304,0.22498574,-0.00027323,-0.000551
 46,-0.00001154,-0.00191216,-0.00133328,0.00066119,0.00004572,0.0007529
 4,-0.00001995,0.00001737,0.00044951,0.00005266,-0.00009732,-0.00000041
 ,-0.00001015,0.00003910,0.00012534,0.00004307,0.00000769,-0.00000151,-
 0.00000917,-0.02029194,-0.01129014,-0.02504912,-0.00150959,0.00137866,
 0.00087378,0.00016009,0.00203062,0.00022162,0.00007739,-0.00001972,-0.
 00031135,0.00019087,-0.00010921,0.00002985,0.00337047,-0.00153010,0.00
 142883,-0.00129975,0.00045320,-0.00143569,0.00019085,0.00014178,0.0000
 9319,0.00064051,-0.00091043,0.00065855,0.00006459,0.00003240,-0.000015
 49,0.00004272,-0.00003721,-0.00004404,-0.00004049,-0.00000243,0.000035
 73,-0.00006720,0.00000687,-0.00003047,0.00000371,-0.00000522,0.0000030
 6,-0.00001284,-0.00000015,-0.00000141,0.00000466,-0.00000452,0.0000028
 0,0.00008260,0.00001617,0.00003374,-0.00000948,0.00000359,0.00000116,-
 0.00000918,-0.00000083,-0.00000244,-0.00009003,-0.00002632,0.00000319,
 0.00000245,0.00000821,0.00000573,0.00000297,0.00000578,-0.00001040,0.0
 0009505,-0.00000601,-0.00000382,-0.00001468,-0.00002557,-0.00001018,-0
 .00002283,-0.00001379,0.00000868,0.00000065,0.00000234,-0.00000221,-0.
 00000547,-0.00001970,-0.00001948,0.00002157,0.00002200,0.00001339,0.00
 001437,0.00002469,0.00000508,0.00000358,-0.00000503,0.00000519,-0.0000
 1618,0.00024514,0.00004716,-0.00017439,-0.00004044,0.00002646,-0.00010
 960,-0.00003810,0.00000084,-0.00001679,-0.00003061,0.00001409,-0.09600
 649,-0.04080193,-0.10467667,0.00605955,0.00452539,0.01113924,0.1094058
 9,0.00103374,0.00073564,0.00002160,-0.00078392,0.00037782,-0.00026409,
 -0.00041506,-0.00131314,0.00024880,-0.00008696,0.00033722,-0.00003506,
 -0.00023867,0.00012037,0.00000849,0.00032623,-0.00002524,0.00003070,-0
 .00000213,-0.00000515,0.00000890,-0.00074368,0.00399920,0.00856969,-0.
 00004242,-0.00009111,0.00005245,0.00016576,0.00052359,-0.00036096,0.00
 004987,0.00005434,-0.00014116,-0.00070409,-0.00020280,-0.00030809,0.00
 086073,-0.00176855,-0.00096796,0.00231211,-0.00043310,0.00144743,-0.00
 044231,0.00028762,-0.00014154,-0.00072310,-0.00076442,-0.00151367,0.00
 004185,0.00001557,-0.00008213,-0.00004718,0.00005492,0.00005421,0.0000
 2942,-0.00001620,-0.00003765,0.00005129,-0.00000885,0.00002587,-0.0000
 0865,0.00000626,0.00000162,0.00002001,-0.00000268,0.00000124,-0.000000
 54,0.00000264,-0.00000029,-0.00006207,-0.00002213,-0.00003429,0.000007
 00,-0.00000132,-0.00000060,0.00000682,0.00000358,0.00000114,0.00006731
 ,0.00002261,0.00000088,-0.00000199,-0.00000607,-0.00000487,-0.00000298
 ,-0.00000384,0.00000751,0.00001376,-0.00002208,-0.00006266,0.00000208,
 0.00002102,0.00001031,0.00000391,-0.00001957,0.00002591,0.00000674,-0.
 00000620,0.00001154,-0.00007699,0.00007271,0.00012082,-0.00001897,0.00
 000434,-0.00005904,-0.00002476,-0.00006695,-0.00003137,-0.00001456,0.0
 0000227,-0.00000750,0.00004837,-0.00001672,-0.00001133,-0.00000236,0.0
 0003563,0.00000804,0.00000271,0.00000524,0.00000066,0.00000558,0.00000
 529,-0.00000159,-0.03794255,-0.07566012,-0.07846938,0.00591207,0.00430
 781,0.01121789,0.04522015,0.07584857,0.00025992,0.00011194,0.00002618,
 -0.00098825,-0.00016348,-0.00018083,-0.00015993,-0.00030390,0.00005227
 ,-0.00002880,0.00022000,0.00005461,-0.00005793,0.00002267,-0.00004213,
 0.00013734,0.00017185,0.00002422,0.00000510,-0.00000717,0.00000968,-0.
 00092713,0.00306731,0.00464477,-0.00034200,0.00069475,-0.00007025,0.00
 173424,0.00035362,-0.00165543,0.00001840,-0.00000557,0.00007184,-0.000
 04863,-0.00033734,-0.00001526,0.00057720,-0.00096990,0.00066172,-0.000
 77426,0.00066777,-0.00043794,0.00005735,-0.00023171,0.00019748,0.00065
 584,-0.00155799,-0.00045420,0.00003428,0.00001978,-0.00004042,-0.00000
 587,0.00001730,0.00001965,0.00000080,-0.00001378,-0.00001419,0.0000087
 4,-0.00000122,0.00000184,-0.00000293,-0.00000043,0.00000077,0.00001242
 ,-0.00000158,-0.00000214,0.00000052,-0.00000062,0.00000001,-0.00001437
 ,-0.00000592,-0.00000311,0.00000211,-0.00000026,-0.00000005,0.00000176
 ,0.00000172,-0.00000010,0.00001503,0.00000591,-0.00000026,-0.00000050,
 -0.00000165,-0.00000111,-0.00000075,-0.00000127,0.00000184,0.00003637,
 -0.00000885,-0.00004176,-0.00000216,0.00000071,0.00000128,0.00000341,-
 0.00001813,0.00001344,0.00000533,-0.00000498,0.00000171,-0.00004280,-0
 .00000192,0.00012347,0.00001159,0.00006011,-0.00002745,-0.00000526,-0.
 00003322,-0.00005643,-0.00000181,-0.00000934,-0.00000424,0.00009999,0.
 00003526,0.00023466,-0.00004420,-0.00001020,-0.00001106,0.00001431,0.0
 0000306,-0.00003624,-0.00000057,-0.00001064,-0.00001001,-0.10230039,-0
 .07818867,-0.22479239,-0.01108060,-0.00882958,-0.01909741,0.11166997,0
 .08419252,0.23998495,-0.00020258,-0.00040281,-0.00001153,0.00072593,0.
 00136607,-0.00003199,-0.00047964,0.00038832,-0.00002635,0.00003568,0.0
 0006115,0.00000588,0.00001812,0.00002004,-0.00000101,-0.00013881,-0.00
 003064,0.00000106,-0.00000217,0.00000593,-0.00000101,-0.00110742,0.034
 38121,0.00170388,0.00016981,0.00010011,0.00002248,0.00133964,-0.000164
 40,0.00000439,-0.00012522,-0.00035881,-0.00000298,0.00018966,0.0002518
 4,0.00002713,-0.00714607,0.00084826,0.00022303,-0.00134393,-0.00074057
 ,-0.00004766,0.00044395,-0.00038778,-0.00006889,0.00047306,-0.00042891
 ,0.00001958,0.00001553,0.00014091,0.00003648,-0.00001607,-0.00001257,-
 0.00004064,-0.00001624,-0.00000057,0.00003264,-0.00004109,-0.00000778,
 -0.00001044,0.00000404,0.00000285,-0.00000052,-0.00002610,-0.00000537,
 0.00000806,0.00000295,0.00000246,-0.00000216,0.00006722,0.00001116,0.0
 0000978,-0.00000920,0.00000049,0.00000175,-0.00000814,-0.00000040,-0.0
 0000223,-0.00007631,-0.00002147,0.00000316,0.00000178,0.00000794,0.000
 00487,0.00000212,0.00000520,-0.00000790,0.00002546,0.00000434,0.000005
 03,-0.00000681,-0.00000763,-0.00000204,-0.00001008,-0.00000109,-0.0000
 0046,-0.00000494,0.00000568,-0.00000189,0.00004165,-0.00001643,-0.0000
 0452,0.00000224,0.00001459,-0.00000004,0.00000347,0.00001455,0.0000016
 4,0.00000897,0.00000214,0.00000009,0.00007165,-0.00008355,0.00000277,-
 0.00000885,-0.00000656,-0.00000150,-0.00002801,-0.00000703,-0.00001031
 ,-0.00004229,-0.00002078,0.00000200,-0.04977168,0.02536893,0.00167169,
 0.00129998,-0.01314011,-0.00296231,0.00143523,-0.01380154,0.00146711,0
 .05423352,0.00010727,0.00024157,-0.00000224,-0.00054505,0.00004954,-0.
 00002061,0.00011259,-0.00034299,0.00003407,-0.00001632,-0.00009022,-0.
 00000961,0.00004086,-0.00002231,0.00000531,0.00006436,0.00011596,0.000
 00354,0.00000283,-0.00000423,0.00000069,-0.00157569,-0.00537990,-0.000
 01992,0.00012066,-0.00018176,-0.00001036,-0.00132298,0.00111811,0.0001
 8236,0.00036301,0.00005117,-0.00004315,0.00001658,-0.00023856,-0.00002
 513,0.00133656,0.00087972,-0.00021300,-0.00028599,0.00083099,0.0000848
 8,0.00008828,-0.00039591,0.00005691,0.00006957,-0.00032470,-0.00009726
 ,-0.00002855,-0.00004886,-0.00001584,-0.00000036,0.00000635,0.00002435
 ,0.00001337,0.00000188,-0.00001917,0.00002779,0.00000171,0.00001059,-0
 .00000272,0.00000045,0.00000052,0.00001237,0.00000160,-0.00000324,-0.0
 0000205,0.00000021,0.00000032,-0.00004231,-0.00000741,-0.00000986,0.00
 000515,-0.00000041,-0.00000115,0.00000486,0.00000013,0.00000159,0.0000
 4711,0.00001320,-0.00000166,-0.00000117,-0.00000472,-0.00000303,-0.000
 00142,-0.00000304,0.00000494,-0.00001916,-0.00000362,-0.00000503,0.000
 00569,0.00000518,0.00000255,0.00000841,0.00000076,-0.00000003,0.000004
 35,-0.00000425,0.00000163,-0.00003199,-0.00000815,0.00000103,0.0000050
 1,0.00000055,0.00000968,0.00000508,0.00000238,-0.00000928,-0.00000201,
 -0.00000610,-0.00000035,-0.00002193,-0.00000886,-0.00000692,0.00002414
 ,0.00001074,0.00000051,0.00003151,0.00001051,0.00000989,0.00001407,0.0
 0001234,-0.00000305,0.03155334,-0.33138216,-0.01529243,0.00181291,-0.0
 0849310,-0.00215874,0.00135937,-0.00638803,0.00107306,-0.03335737,0.34
 998425,0.00003371,0.00005628,0.00002839,-0.00008150,0.00001562,0.00062
 159,-0.00000154,-0.00007152,-0.00018481,-0.00000664,-0.00001818,0.0000
 4711,0.00000661,-0.00000017,-0.00003039,0.00000917,0.00001141,-0.00001
 913,-0.00000004,-0.00000070,0.00000288,-0.00041036,-0.00034122,-0.0034
 0938,-0.00000022,-0.00003834,-0.00002383,-0.00009102,-0.00006201,-0.00
 052888,0.00003493,0.00001236,0.00010073,0.00000238,-0.00002633,0.00010
 107,0.00016663,-0.00009218,0.00215292,0.00001600,0.00011747,-0.0010447
 4,-0.00032149,0.00076284,0.00016286,0.00031932,-0.00084522,0.00008449,
 -0.00001387,-0.00000540,-0.00003620,0.00002722,-0.00000342,0.00000144,
 -0.00001180,0.00000421,0.00000196,-0.00000410,0.00000173,-0.00000833,0
 .00000054,-0.00000173,0.00000063,0.00000324,-0.00000205,-0.00000269,-0
 .00000088,0.00000011,-0.00000064,-0.00000061,0.00000346,0.00000774,0.0
 0000162,-0.00000080,-0.00000009,-0.00000018,-0.00000061,0.00000013,0.0
 0000103,-0.00000045,-0.00000158,0.00000004,-0.00000013,0.00000020,0.00
 000017,-0.00000036,0.00000035,-0.00000084,0.00000447,0.00000676,-0.000
 00163,-0.00000445,-0.00000352,0.00000200,0.00000136,-0.00000481,0.0000
 0020,-0.00000137,-0.00000372,-0.00000266,-0.00000170,0.00001824,0.0000
 0596,0.00000891,-0.00000220,-0.00000530,-0.00000814,-0.00000435,-0.000
 00029,-0.00000047,0.00000230,-0.00000540,0.00001260,0.00003759,0.00000
 269,-0.00001155,-0.00000931,0.00000287,0.00000413,-0.00001138,0.000003
 27,0.00000021,-0.00000133,0.00225033,-0.01511865,-0.04507319,-0.004498
 82,0.02271031,0.00339344,0.00458532,-0.02353298,0.00086803,-0.00201609
 ,0.01646262,0.04276364\\0.00000357,-0.00000186,0.00000203,0.00000469,0
 .00000140,-0.00000087,-0.00000681,-0.00000075,0.00000114,0.00000186,0.
 00000575,-0.00000021,-0.00000592,-0.00000157,-0.00000021,0.00000108,-0
 .00000478,-0.00000150,-0.00000025,-0.00000037,-0.00000067,0.00000022,0
 .00000588,-0.00000025,0.00000225,-0.00000560,0.00000014,-0.00000640,0.
 00000192,-0.00000022,-0.00000048,0.00000027,0.00000023,0.00000115,0.00
 000249,-0.00000234,0.00000103,-0.00000345,-0.00000054,0.00000293,-0.00
 000016,0.00000058,-0.00000180,-0.00000113,0.00000142,-0.00000202,0.000
 00083,-0.00000385,-0.00000005,0.00000106,0.00000103,0.00000181,-0.0000
 0126,-0.00000477,0.00000311,0.00000025,0.00000558,-0.00000289,-0.00000
 114,-0.00000450,0.00000077,-0.00000061,0.00000036,-0.00000407,-0.00000
 029,0.00000583,0.00000006,0.00000066,0.00000036,-0.00000744,-0.0000005
 5,0.00000127,0.00000015,0.00000012,0.00000035,-0.00000050,0.00000011,0
 .00000124,0.00000479,0.00000551,0.00000022,0.00000282,-0.00000126,0.00
 000533,0.00000361,-0.00000311,-0.00000201,0.00000097,0.00000139,-0.000
 00172,0.00000093,0.00000130,0.00000090,0.00000137,0.00000104,-0.000000
 99,0.00000092,-0.00000048,0.00000003,-0.00000032,-0.00000301,-0.000001
 38,-0.00000085,0.00000098,-0.00000037,-0.00000064,0.00000184,-0.000000
 93,-0.00000011,-0.00000023,-0.00000150,0.00000089,-0.00000151,-0.00000
 078,0.00000105,0.00000006,0.00000049,0.00000033,-0.00000005,0.00000216
 ,0.00000076,0.00000039,0.00000053,-0.00000006,0.00000590,0.00000039,-0
 .00000200,-0.00000202,-0.00000173,-0.00000035,-0.00000338,-0.00000055,
 -0.00000014,-0.00000058,0.00000028\\\@


 SCIENCE AND PEACE WILL TRIUMPH OVER IGNORANCE AND WAR

                          -- PASTEUR
 Job cpu time:       1 days 11 hours  0 minutes 41.8 seconds.
 Elapsed time:       0 days  0 hours 52 minutes 58.5 seconds.
 File lengths (MBytes):  RWF=   3789 Int=      0 D2E=      0 Chk=     65 Scr=      1
 Normal termination of Gaussian 16 at Mon Dec 22 00:07:45 2025.
