 Entering Gaussian System, Link 0=g16
 Initial command:
 /home/users/ntu/xiaogan4/Softwares/g16/l1.exe "/scratch/users/ntu/xiaogan4/g16scratch/Gau-2240194.inp" -scrdir="/scratch/users/ntu/xiaogan4/g16scratch/"
 Entering Link 1 = /home/users/ntu/xiaogan4/Softwares/g16/l1.exe PID=   2240195.
  
 Copyright (c) 1988,1990,1992,1993,1995,1998,2003,2009,2016,
            Gaussian, Inc.  All Rights Reserved.
  
 This is part of the Gaussian(R) 16 program.  It is based on
 the Gaussian(R) 09 system (copyright 2009, Gaussian, Inc.),
 the Gaussian(R) 03 system (copyright 2003, Gaussian, Inc.),
 the Gaussian(R) 98 system (copyright 1998, Gaussian, Inc.),
 the Gaussian(R) 94 system (copyright 1995, Gaussian, Inc.),
 the Gaussian 92(TM) system (copyright 1992, Gaussian, Inc.),
 the Gaussian 90(TM) system (copyright 1990, Gaussian, Inc.),
 the Gaussian 88(TM) system (copyright 1988, Gaussian, Inc.),
 the Gaussian 86(TM) system (copyright 1986, Carnegie Mellon
 University), and the Gaussian 82(TM) system (copyright 1983,
 Carnegie Mellon University). Gaussian is a federally registered
 trademark of Gaussian, Inc.
  
 This software contains proprietary and confidential information,
 including trade secrets, belonging to Gaussian, Inc.
  
 This software is provided under written license and may be
 used, copied, transmitted, or stored only in accord with that
 written license.
  
 The following legend is applicable only to US Government
 contracts under FAR:
  
                    RESTRICTED RIGHTS LEGEND
  
 Use, reproduction and disclosure by the US Government is
 subject to restrictions as set forth in subparagraphs (a)
 and (c) of the Commercial Computer Software - Restricted
 Rights clause in FAR 52.227-19.
  
 Gaussian, Inc.
 340 Quinnipiac St., Bldg. 40, Wallingford CT 06492
  
  
 ---------------------------------------------------------------
 Warning -- This program may not be used in any manner that
 competes with the business of Gaussian, Inc. or will provide
 assistance to any competitor of Gaussian, Inc.  The licensee
 of this program is prohibited from giving any competitor of
 Gaussian, Inc. access to this program.  By using this program,
 the user acknowledges that Gaussian, Inc. is engaged in the
 business of creating and licensing software in the field of
 computational chemistry and represents and warrants to the
 licensee that it is not a competitor of Gaussian, Inc. and that
 it will not use this program in any manner prohibited above.
 ---------------------------------------------------------------
  

 Cite this work as:
 Gaussian 16, Revision A.03,
 M. J. Frisch, G. W. Trucks, H. B. Schlegel, G. E. Scuseria, 
 M. A. Robb, J. R. Cheeseman, G. Scalmani, V. Barone, 
 G. A. Petersson, H. Nakatsuji, X. Li, M. Caricato, A. V. Marenich, 
 J. Bloino, B. G. Janesko, R. Gomperts, B. Mennucci, H. P. Hratchian, 
 J. V. Ortiz, A. F. Izmaylov, J. L. Sonnenberg, D. Williams-Young, 
 F. Ding, F. Lipparini, F. Egidi, J. Goings, B. Peng, A. Petrone, 
 T. Henderson, D. Ranasinghe, V. G. Zakrzewski, J. Gao, N. Rega, 
 G. Zheng, W. Liang, M. Hada, M. Ehara, K. Toyota, R. Fukuda, 
 J. Hasegawa, M. Ishida, T. Nakajima, Y. Honda, O. Kitao, H. Nakai, 
 T. Vreven, K. Throssell, J. A. Montgomery, Jr., J. E. Peralta, 
 F. Ogliaro, M. J. Bearpark, J. J. Heyd, E. N. Brothers, K. N. Kudin, 
 V. N. Staroverov, T. A. Keith, R. Kobayashi, J. Normand, 
 K. Raghavachari, A. P. Rendell, J. C. Burant, S. S. Iyengar, 
 J. Tomasi, M. Cossi, J. M. Millam, M. Klene, C. Adamo, R. Cammi, 
 J. W. Ochterski, R. L. Martin, K. Morokuma, O. Farkas, 
 J. B. Foresman, and D. J. Fox, Gaussian, Inc., Wallingford CT, 2016.
 
 ******************************************
 Gaussian 16:  ES64L-G16RevA.03 25-Dec-2016
                24-Dec-2025 
 ******************************************
 %nprocshared=40
 Will use up to   40 processors via shared memory.
 %mem=128GB
 %chk=04BDP-NH2_2_water_m062x_def2SVP_dmso.chk
 ----------------------------------------------------------------------
 # opt freq td=(nstates=5,root=2) scrf=(smd,solvent=ethanol) def2svp m0
 62x
 ----------------------------------------------------------------------
 1/18=20,19=15,26=3,38=1/1,3;
 2/9=110,12=2,17=6,18=5,40=1/2;
 3/5=43,7=101,11=9,25=1,30=1,70=32201,71=1,72=4,74=-55/1,2,3,8;
 4//1;
 5/5=2,38=5,53=4/2;
 8/6=1,10=1,107=2,108=5/1;
 9/8=2,15=2,41=5,42=1,70=2/14;
 10/5=4,28=2/2;
 6/7=2,8=2,9=2,10=2/1;
 7/12=6,13=5,14=2/1,2,3,16;
 1/18=20,19=15,26=3/3(2);
 2/9=110/2;
 99//99;
 2/9=110/2;
 3/5=43,7=101,11=9,25=1,30=1,70=32205,71=1,72=4,74=-55/1,2,3,8;
 4/5=5,16=3,69=1/1;
 5/5=2,38=5,53=4/2;
 8/6=1,10=1,107=2,108=5/1;
 9/8=2,15=2,41=5,42=1,49=4,70=2/14;
 10/5=4,28=2/2;
 7/12=6,13=5,14=2/1,2,3,16;
 1/18=20,19=15,26=3/3(-8);
 2/9=110/2;
 6/7=2,8=2,9=2,10=2/1;
 99//99;
 --------------------------
 Step4 ES Opt m062x/def2SVP
 --------------------------
 Symbolic Z-matrix:
 Charge =  0 Multiplicity = 1
 C                     1.06904  -1.24153  -0.24834 
 C                     1.05933   1.23104  -0.26744 
 C                     0.36952  -0.00939  -0.43524 
 C                     0.63415  -2.58015  -0.35625 
 C                     1.76715  -3.37881  -0.06 
 C                     2.83532  -2.53488   0.21442 
 H                     1.8028   -4.46744  -0.05198 
 C                     2.81481   2.5449    0.17857 
 C                     0.61419   2.5647   -0.39587 
 C                     1.7405    3.37636  -0.10986 
 H                     1.7678    4.46524  -0.1181 
 N                     2.40905  -1.24021   0.10033 
 N                     2.39871   1.24547   0.08339 
 B                     3.27012   0.00795   0.35956 
 F                     3.72933   0.01896   1.69357 
 F                     4.40377   0.00723  -0.47632 
 C                    -1.07523  -0.01563  -0.64653 
 C                    -1.66131   0.49604  -1.84972 
 C                    -1.9446   -0.53941   0.3647 
 C                    -3.0106    0.49071  -2.03797 
 H                    -1.00042   0.89475  -2.621 
 C                    -3.2979   -0.55773   0.20285 
 H                    -1.49864  -0.92977   1.28116 
 C                    -3.87359  -0.0389   -1.01277 
 H                    -3.46278   0.87917  -2.9516 
 H                    -3.95582  -0.95624   0.97782 
 N                    -5.17537  -0.05172  -1.17923 
 H                    -5.80504  -0.43249  -0.45245 
 H                    -5.5818    0.31381  -2.0378 
 O                    -6.85125  -0.05585   1.09685 
 H                    -7.39272  -0.85903   1.14544 
 H                    -7.49476   0.66896   1.12348 
 O                    -5.03294   0.05626   3.24452 
 H                    -5.72714   0.01857   2.56119 
 H                    -4.77865   0.98875   3.24424 
 C                    -0.72483  -3.09027  -0.73268 
 H                    -1.51003  -2.77713  -0.02597 
 H                    -1.03713  -2.74943  -1.73294 
 H                    -0.71928  -4.18955  -0.74942 
 C                     4.24492  -2.88122   0.568 
 H                     4.9481   -2.56015  -0.21562 
 H                     4.55345  -2.38759   1.50171 
 H                     4.34315  -3.9667    0.69699 
 C                    -0.74634   3.05969  -0.78699 
 H                    -1.03716   2.72726  -1.79668 
 H                    -1.53845   2.72593  -0.09781 
 H                    -0.75643   4.15907  -0.7902 
 C                     4.22138   2.90752   0.52775 
 H                     4.53511   2.42561   1.46578 
 H                     4.92695   2.58558  -0.2534 
 H                     4.30978   3.99506   0.64612 
 
 Add virtual bond connecting atoms H34        and O30        Dist= 3.49D+00.
 Add virtual bond connecting atoms O30        and H28        Dist= 3.60D+00.

 GradGradGradGradGradGradGradGradGradGradGradGradGradGradGradGradGradGrad
 Berny optimization.
 Initialization pass.
                           ----------------------------
                           !    Initial Parameters    !
                           ! (Angstroms and Degrees)  !
 --------------------------                            --------------------------
 ! Name  Definition              Value          Derivative Info.                !
 --------------------------------------------------------------------------------
 ! R1    R(1,3)                  1.4291         estimate D2E/DX2                !
 ! R2    R(1,4)                  1.4116         estimate D2E/DX2                !
 ! R3    R(1,12)                 1.3846         estimate D2E/DX2                !
 ! R4    R(2,3)                  1.4292         estimate D2E/DX2                !
 ! R5    R(2,9)                  1.4118         estimate D2E/DX2                !
 ! R6    R(2,13)                 1.3846         estimate D2E/DX2                !
 ! R7    R(3,17)                 1.4601         estimate D2E/DX2                !
 ! R8    R(4,5)                  1.4175         estimate D2E/DX2                !
 ! R9    R(4,36)                 1.4996         estimate D2E/DX2                !
 ! R10   R(5,6)                  1.3887         estimate D2E/DX2                !
 ! R11   R(5,7)                  1.0892         estimate D2E/DX2                !
 ! R12   R(6,12)                 1.3678         estimate D2E/DX2                !
 ! R13   R(6,40)                 1.494          estimate D2E/DX2                !
 ! R14   R(8,10)                 1.3888         estimate D2E/DX2                !
 ! R15   R(8,13)                 1.3677         estimate D2E/DX2                !
 ! R16   R(8,48)                 1.4939         estimate D2E/DX2                !
 ! R17   R(9,10)                 1.4175         estimate D2E/DX2                !
 ! R18   R(9,44)                 1.4997         estimate D2E/DX2                !
 ! R19   R(10,11)                1.0893         estimate D2E/DX2                !
 ! R20   R(12,14)                1.5384         estimate D2E/DX2                !
 ! R21   R(13,14)                1.5385         estimate D2E/DX2                !
 ! R22   R(14,15)                1.4109         estimate D2E/DX2                !
 ! R23   R(14,16)                1.4085         estimate D2E/DX2                !
 ! R24   R(17,18)                1.4328         estimate D2E/DX2                !
 ! R25   R(17,19)                1.4327         estimate D2E/DX2                !
 ! R26   R(18,20)                1.3624         estimate D2E/DX2                !
 ! R27   R(18,21)                1.0912         estimate D2E/DX2                !
 ! R28   R(19,22)                1.3631         estimate D2E/DX2                !
 ! R29   R(19,23)                1.0914         estimate D2E/DX2                !
 ! R30   R(20,24)                1.4409         estimate D2E/DX2                !
 ! R31   R(20,25)                1.0909         estimate D2E/DX2                !
 ! R32   R(22,24)                1.4416         estimate D2E/DX2                !
 ! R33   R(22,26)                1.0919         estimate D2E/DX2                !
 ! R34   R(24,27)                1.3124         estimate D2E/DX2                !
 ! R35   R(27,28)                1.0343         estimate D2E/DX2                !
 ! R36   R(27,29)                1.0178         estimate D2E/DX2                !
 ! R37   R(28,30)                1.907          estimate D2E/DX2                !
 ! R38   R(30,31)                0.9699         estimate D2E/DX2                !
 ! R39   R(30,32)                0.9696         estimate D2E/DX2                !
 ! R40   R(30,34)                1.8476         estimate D2E/DX2                !
 ! R41   R(33,34)                0.9748         estimate D2E/DX2                !
 ! R42   R(33,35)                0.9665         estimate D2E/DX2                !
 ! R43   R(36,37)                1.1018         estimate D2E/DX2                !
 ! R44   R(36,38)                1.1019         estimate D2E/DX2                !
 ! R45   R(36,39)                1.0994         estimate D2E/DX2                !
 ! R46   R(40,41)                1.1007         estimate D2E/DX2                !
 ! R47   R(40,42)                1.1003         estimate D2E/DX2                !
 ! R48   R(40,43)                1.0975         estimate D2E/DX2                !
 ! R49   R(44,45)                1.1021         estimate D2E/DX2                !
 ! R50   R(44,46)                1.1017         estimate D2E/DX2                !
 ! R51   R(44,47)                1.0994         estimate D2E/DX2                !
 ! R52   R(48,49)                1.1003         estimate D2E/DX2                !
 ! R53   R(48,50)                1.1008         estimate D2E/DX2                !
 ! R54   R(48,51)                1.0975         estimate D2E/DX2                !
 ! A1    A(3,1,4)              131.0546         estimate D2E/DX2                !
 ! A2    A(3,1,12)             120.3852         estimate D2E/DX2                !
 ! A3    A(4,1,12)             108.5601         estimate D2E/DX2                !
 ! A4    A(3,2,9)              131.0708         estimate D2E/DX2                !
 ! A5    A(3,2,13)             120.3755         estimate D2E/DX2                !
 ! A6    A(9,2,13)             108.5536         estimate D2E/DX2                !
 ! A7    A(1,3,2)              119.7802         estimate D2E/DX2                !
 ! A8    A(1,3,17)             119.9708         estimate D2E/DX2                !
 ! A9    A(2,3,17)             119.8851         estimate D2E/DX2                !
 ! A10   A(1,4,5)              105.7876         estimate D2E/DX2                !
 ! A11   A(1,4,36)             128.3864         estimate D2E/DX2                !
 ! A12   A(5,4,36)             125.8136         estimate D2E/DX2                !
 ! A13   A(4,5,6)              108.2824         estimate D2E/DX2                !
 ! A14   A(4,5,7)              126.2148         estimate D2E/DX2                !
 ! A15   A(6,5,7)              125.5022         estimate D2E/DX2                !
 ! A16   A(5,6,12)             108.6035         estimate D2E/DX2                !
 ! A17   A(5,6,40)             129.1703         estimate D2E/DX2                !
 ! A18   A(12,6,40)            122.2234         estimate D2E/DX2                !
 ! A19   A(10,8,13)            108.603          estimate D2E/DX2                !
 ! A20   A(10,8,48)            129.1648         estimate D2E/DX2                !
 ! A21   A(13,8,48)            122.2289         estimate D2E/DX2                !
 ! A22   A(2,9,10)             105.7846         estimate D2E/DX2                !
 ! A23   A(2,9,44)             128.4294         estimate D2E/DX2                !
 ! A24   A(10,9,44)            125.7675         estimate D2E/DX2                !
 ! A25   A(8,10,9)             108.286          estimate D2E/DX2                !
 ! A26   A(8,10,11)            125.4989         estimate D2E/DX2                !
 ! A27   A(9,10,11)            126.2144         estimate D2E/DX2                !
 ! A28   A(1,12,6)             108.7664         estimate D2E/DX2                !
 ! A29   A(1,12,14)            125.7961         estimate D2E/DX2                !
 ! A30   A(6,12,14)            125.4138         estimate D2E/DX2                !
 ! A31   A(2,13,8)             108.7727         estimate D2E/DX2                !
 ! A32   A(2,13,14)            125.8015         estimate D2E/DX2                !
 ! A33   A(8,13,14)            125.4064         estimate D2E/DX2                !
 ! A34   A(12,14,13)           107.7784         estimate D2E/DX2                !
 ! A35   A(12,14,15)           110.3553         estimate D2E/DX2                !
 ! A36   A(12,14,16)           110.4932         estimate D2E/DX2                !
 ! A37   A(13,14,15)           110.3526         estimate D2E/DX2                !
 ! A38   A(13,14,16)           110.4723         estimate D2E/DX2                !
 ! A39   A(15,14,16)           107.4071         estimate D2E/DX2                !
 ! A40   A(3,17,18)            121.6494         estimate D2E/DX2                !
 ! A41   A(3,17,19)            119.9886         estimate D2E/DX2                !
 ! A42   A(18,17,19)           118.3619         estimate D2E/DX2                !
 ! A43   A(17,18,20)           121.3153         estimate D2E/DX2                !
 ! A44   A(17,18,21)           118.4444         estimate D2E/DX2                !
 ! A45   A(20,18,21)           120.2403         estimate D2E/DX2                !
 ! A46   A(17,19,22)           121.5707         estimate D2E/DX2                !
 ! A47   A(17,19,23)           118.3904         estimate D2E/DX2                !
 ! A48   A(22,19,23)           120.0389         estimate D2E/DX2                !
 ! A49   A(18,20,24)           119.7549         estimate D2E/DX2                !
 ! A50   A(18,20,25)           121.6578         estimate D2E/DX2                !
 ! A51   A(24,20,25)           118.5873         estimate D2E/DX2                !
 ! A52   A(19,22,24)           119.4561         estimate D2E/DX2                !
 ! A53   A(19,22,26)           121.2559         estimate D2E/DX2                !
 ! A54   A(24,22,26)           119.2879         estimate D2E/DX2                !
 ! A55   A(20,24,22)           119.5411         estimate D2E/DX2                !
 ! A56   A(20,24,27)           120.4906         estimate D2E/DX2                !
 ! A57   A(22,24,27)           119.9683         estimate D2E/DX2                !
 ! A58   A(24,27,28)           121.221          estimate D2E/DX2                !
 ! A59   A(24,27,29)           119.9705         estimate D2E/DX2                !
 ! A60   A(28,27,29)           118.8079         estimate D2E/DX2                !
 ! A61   A(27,28,30)           146.3241         estimate D2E/DX2                !
 ! A62   A(28,30,31)           100.57           estimate D2E/DX2                !
 ! A63   A(28,30,32)           122.2795         estimate D2E/DX2                !
 ! A64   A(28,30,34)           108.5463         estimate D2E/DX2                !
 ! A65   A(31,30,32)           104.3083         estimate D2E/DX2                !
 ! A66   A(31,30,34)           109.4706         estimate D2E/DX2                !
 ! A67   A(32,30,34)           110.605          estimate D2E/DX2                !
 ! A68   A(34,33,35)           102.9708         estimate D2E/DX2                !
 ! A69   A(4,36,37)            112.8381         estimate D2E/DX2                !
 ! A70   A(4,36,38)            112.3023         estimate D2E/DX2                !
 ! A71   A(4,36,39)            109.8388         estimate D2E/DX2                !
 ! A72   A(37,36,38)           106.9978         estimate D2E/DX2                !
 ! A73   A(37,36,39)           107.3091         estimate D2E/DX2                !
 ! A74   A(38,36,39)           107.271          estimate D2E/DX2                !
 ! A75   A(6,40,41)            111.5083         estimate D2E/DX2                !
 ! A76   A(6,40,42)            111.1864         estimate D2E/DX2                !
 ! A77   A(6,40,43)            109.9711         estimate D2E/DX2                !
 ! A78   A(41,40,42)           107.1053         estimate D2E/DX2                !
 ! A79   A(41,40,43)           108.3597         estimate D2E/DX2                !
 ! A80   A(42,40,43)           108.5953         estimate D2E/DX2                !
 ! A81   A(9,44,45)            112.2583         estimate D2E/DX2                !
 ! A82   A(9,44,46)            112.8999         estimate D2E/DX2                !
 ! A83   A(9,44,47)            109.8246         estimate D2E/DX2                !
 ! A84   A(45,44,46)           106.9779         estimate D2E/DX2                !
 ! A85   A(45,44,47)           107.2496         estimate D2E/DX2                !
 ! A86   A(46,44,47)           107.3465         estimate D2E/DX2                !
 ! A87   A(8,48,49)            111.1876         estimate D2E/DX2                !
 ! A88   A(8,48,50)            111.5084         estimate D2E/DX2                !
 ! A89   A(8,48,51)            109.9719         estimate D2E/DX2                !
 ! A90   A(49,48,50)           107.1057         estimate D2E/DX2                !
 ! A91   A(49,48,51)           108.6083         estimate D2E/DX2                !
 ! A92   A(50,48,51)           108.3442         estimate D2E/DX2                !
 ! A93   L(30,34,33,1,-1)      172.1951         estimate D2E/DX2                !
 ! A94   L(30,34,33,1,-2)      178.495          estimate D2E/DX2                !
 ! D1    D(4,1,3,2)           -179.6944         estimate D2E/DX2                !
 ! D2    D(4,1,3,17)             7.2379         estimate D2E/DX2                !
 ! D3    D(12,1,3,2)             0.3033         estimate D2E/DX2                !
 ! D4    D(12,1,3,17)         -172.7644         estimate D2E/DX2                !
 ! D5    D(3,1,4,5)            179.9287         estimate D2E/DX2                !
 ! D6    D(3,1,4,36)             1.1692         estimate D2E/DX2                !
 ! D7    D(12,1,4,5)            -0.0692         estimate D2E/DX2                !
 ! D8    D(12,1,4,36)         -178.8287         estimate D2E/DX2                !
 ! D9    D(3,1,12,6)          -179.9163         estimate D2E/DX2                !
 ! D10   D(3,1,12,14)            1.7831         estimate D2E/DX2                !
 ! D11   D(4,1,12,6)             0.0819         estimate D2E/DX2                !
 ! D12   D(4,1,12,14)         -178.2188         estimate D2E/DX2                !
 ! D13   D(9,2,3,1)            179.6975         estimate D2E/DX2                !
 ! D14   D(9,2,3,17)            -7.2288         estimate D2E/DX2                !
 ! D15   D(13,2,3,1)            -0.4152         estimate D2E/DX2                !
 ! D16   D(13,2,3,17)          172.6584         estimate D2E/DX2                !
 ! D17   D(3,2,9,10)           179.9764         estimate D2E/DX2                !
 ! D18   D(3,2,9,44)            -1.5297         estimate D2E/DX2                !
 ! D19   D(13,2,9,10)            0.079          estimate D2E/DX2                !
 ! D20   D(13,2,9,44)          178.5729         estimate D2E/DX2                !
 ! D21   D(3,2,13,8)           179.9881         estimate D2E/DX2                !
 ! D22   D(3,2,13,14)           -1.5494         estimate D2E/DX2                !
 ! D23   D(9,2,13,8)            -0.1015         estimate D2E/DX2                !
 ! D24   D(9,2,13,14)          178.3609         estimate D2E/DX2                !
 ! D25   D(1,3,17,18)         -118.8459         estimate D2E/DX2                !
 ! D26   D(1,3,17,19)           61.3122         estimate D2E/DX2                !
 ! D27   D(2,3,17,18)           68.0938         estimate D2E/DX2                !
 ! D28   D(2,3,17,19)         -111.7481         estimate D2E/DX2                !
 ! D29   D(1,4,5,6)              0.0319         estimate D2E/DX2                !
 ! D30   D(1,4,5,7)           -179.681          estimate D2E/DX2                !
 ! D31   D(36,4,5,6)           178.8329         estimate D2E/DX2                !
 ! D32   D(36,4,5,7)            -0.88           estimate D2E/DX2                !
 ! D33   D(1,4,36,37)          -61.923          estimate D2E/DX2                !
 ! D34   D(1,4,36,38)           59.1141         estimate D2E/DX2                !
 ! D35   D(1,4,36,39)          178.3976         estimate D2E/DX2                !
 ! D36   D(5,4,36,37)          119.5491         estimate D2E/DX2                !
 ! D37   D(5,4,36,38)         -119.4138         estimate D2E/DX2                !
 ! D38   D(5,4,36,39)           -0.1304         estimate D2E/DX2                !
 ! D39   D(4,5,6,12)             0.0173         estimate D2E/DX2                !
 ! D40   D(4,5,6,40)          -179.3771         estimate D2E/DX2                !
 ! D41   D(7,5,6,12)           179.7328         estimate D2E/DX2                !
 ! D42   D(7,5,6,40)             0.3384         estimate D2E/DX2                !
 ! D43   D(5,6,12,1)            -0.0613         estimate D2E/DX2                !
 ! D44   D(5,6,12,14)          178.2474         estimate D2E/DX2                !
 ! D45   D(40,6,12,1)          179.3837         estimate D2E/DX2                !
 ! D46   D(40,6,12,14)          -2.3075         estimate D2E/DX2                !
 ! D47   D(5,6,40,41)          114.2619         estimate D2E/DX2                !
 ! D48   D(5,6,40,42)         -126.2787         estimate D2E/DX2                !
 ! D49   D(5,6,40,43)           -5.965          estimate D2E/DX2                !
 ! D50   D(12,6,40,41)         -65.0597         estimate D2E/DX2                !
 ! D51   D(12,6,40,42)          54.3997         estimate D2E/DX2                !
 ! D52   D(12,6,40,43)         174.7134         estimate D2E/DX2                !
 ! D53   D(13,8,10,9)           -0.0327         estimate D2E/DX2                !
 ! D54   D(13,8,10,11)        -179.7341         estimate D2E/DX2                !
 ! D55   D(48,8,10,9)          179.3143         estimate D2E/DX2                !
 ! D56   D(48,8,10,11)          -0.3871         estimate D2E/DX2                !
 ! D57   D(10,8,13,2)            0.083          estimate D2E/DX2                !
 ! D58   D(10,8,13,14)        -178.387          estimate D2E/DX2                !
 ! D59   D(48,8,13,2)         -179.3184         estimate D2E/DX2                !
 ! D60   D(48,8,13,14)           2.2115         estimate D2E/DX2                !
 ! D61   D(10,8,48,49)         126.6585         estimate D2E/DX2                !
 ! D62   D(10,8,48,50)        -113.8808         estimate D2E/DX2                !
 ! D63   D(10,8,48,51)           6.3273         estimate D2E/DX2                !
 ! D64   D(13,8,48,49)         -54.0732         estimate D2E/DX2                !
 ! D65   D(13,8,48,50)          65.3876         estimate D2E/DX2                !
 ! D66   D(13,8,48,51)        -174.4043         estimate D2E/DX2                !
 ! D67   D(2,9,10,8)            -0.0286         estimate D2E/DX2                !
 ! D68   D(2,9,10,11)          179.67           estimate D2E/DX2                !
 ! D69   D(44,9,10,8)         -178.5745         estimate D2E/DX2                !
 ! D70   D(44,9,10,11)           1.1241         estimate D2E/DX2                !
 ! D71   D(2,9,44,45)          -60.7879         estimate D2E/DX2                !
 ! D72   D(2,9,44,46)           60.2358         estimate D2E/DX2                !
 ! D73   D(2,9,44,47)          179.9935         estimate D2E/DX2                !
 ! D74   D(10,9,44,45)         117.4258         estimate D2E/DX2                !
 ! D75   D(10,9,44,46)        -121.5505         estimate D2E/DX2                !
 ! D76   D(10,9,44,47)          -1.7928         estimate D2E/DX2                !
 ! D77   D(1,12,14,13)          -3.1932         estimate D2E/DX2                !
 ! D78   D(1,12,14,15)         117.3727         estimate D2E/DX2                !
 ! D79   D(1,12,14,16)        -123.9872         estimate D2E/DX2                !
 ! D80   D(6,12,14,13)         178.7812         estimate D2E/DX2                !
 ! D81   D(6,12,14,15)         -60.6529         estimate D2E/DX2                !
 ! D82   D(6,12,14,16)          57.9872         estimate D2E/DX2                !
 ! D83   D(2,13,14,12)           3.0749         estimate D2E/DX2                !
 ! D84   D(2,13,14,15)        -117.4927         estimate D2E/DX2                !
 ! D85   D(2,13,14,16)         123.882          estimate D2E/DX2                !
 ! D86   D(8,13,14,12)        -178.7112         estimate D2E/DX2                !
 ! D87   D(8,13,14,15)          60.7212         estimate D2E/DX2                !
 ! D88   D(8,13,14,16)         -57.9041         estimate D2E/DX2                !
 ! D89   D(3,17,18,20)        -179.7914         estimate D2E/DX2                !
 ! D90   D(3,17,18,21)           0.1895         estimate D2E/DX2                !
 ! D91   D(19,17,18,20)          0.053          estimate D2E/DX2                !
 ! D92   D(19,17,18,21)       -179.9661         estimate D2E/DX2                !
 ! D93   D(3,17,19,22)         179.8212         estimate D2E/DX2                !
 ! D94   D(3,17,19,23)          -0.1856         estimate D2E/DX2                !
 ! D95   D(18,17,19,22)         -0.0258         estimate D2E/DX2                !
 ! D96   D(18,17,19,23)        179.9673         estimate D2E/DX2                !
 ! D97   D(17,18,20,24)         -0.0476         estimate D2E/DX2                !
 ! D98   D(17,18,20,25)        179.9762         estimate D2E/DX2                !
 ! D99   D(21,18,20,24)        179.9718         estimate D2E/DX2                !
 ! D100  D(21,18,20,25)         -0.0043         estimate D2E/DX2                !
 ! D101  D(17,19,22,24)         -0.0051         estimate D2E/DX2                !
 ! D102  D(17,19,22,26)       -179.8703         estimate D2E/DX2                !
 ! D103  D(23,19,22,24)       -179.9981         estimate D2E/DX2                !
 ! D104  D(23,19,22,26)          0.1366         estimate D2E/DX2                !
 ! D105  D(18,20,24,22)          0.0153         estimate D2E/DX2                !
 ! D106  D(18,20,24,27)       -179.967          estimate D2E/DX2                !
 ! D107  D(25,20,24,22)        179.9922         estimate D2E/DX2                !
 ! D108  D(25,20,24,27)          0.0099         estimate D2E/DX2                !
 ! D109  D(19,22,24,20)          0.0112         estimate D2E/DX2                !
 ! D110  D(19,22,24,27)        179.9936         estimate D2E/DX2                !
 ! D111  D(26,22,24,20)        179.8791         estimate D2E/DX2                !
 ! D112  D(26,22,24,27)         -0.1385         estimate D2E/DX2                !
 ! D113  D(20,24,27,28)        179.7597         estimate D2E/DX2                !
 ! D114  D(20,24,27,29)          0.0362         estimate D2E/DX2                !
 ! D115  D(22,24,27,28)         -0.2226         estimate D2E/DX2                !
 ! D116  D(22,24,27,29)       -179.9461         estimate D2E/DX2                !
 ! D117  D(24,27,28,30)         90.9455         estimate D2E/DX2                !
 ! D118  D(29,27,28,30)        -89.3279         estimate D2E/DX2                !
 ! D119  D(27,28,30,31)        165.3379         estimate D2E/DX2                !
 ! D120  D(27,28,30,32)         50.804          estimate D2E/DX2                !
 ! D121  D(27,28,30,34)        -79.8114         estimate D2E/DX2                !
 ! D122  D(28,30,33,35)         89.3387         estimate D2E/DX2                !
 ! D123  D(31,30,33,35)       -162.4867         estimate D2E/DX2                !
 ! D124  D(32,30,33,35)        -46.3449         estimate D2E/DX2                !
 --------------------------------------------------------------------------------
 Trust Radius=3.00D-01 FncErr=1.00D-07 GrdErr=1.00D-06 EigMax=2.50D+02 EigMin=1.00D-04
 Number of steps in this run=    282 maximum allowed number of steps=    306.
 GradGradGradGradGradGradGradGradGradGradGradGradGradGradGradGradGradGrad

 Stoichiometry    C19H24BF2N3O2
 Framework group  C1[X(C19H24BF2N3O2)]
 Deg. of freedom   147
 Full point group                 C1      NOp   1
 Largest Abelian subgroup         C1      NOp   1
 Largest concise Abelian subgroup C1      NOp   1
                         Standard orientation:                         
 ---------------------------------------------------------------------
 Center     Atomic      Atomic             Coordinates (Angstroms)
 Number     Number       Type             X           Y           Z
 ---------------------------------------------------------------------
      1          6           0        1.064363   -1.229661   -0.304262
      2          6           0        1.063497    1.241304   -0.212808
      3          6           0        0.369115    0.012069   -0.435240
      4          6           0        0.624596   -2.560577   -0.471490
      5          6           0        1.754955   -3.375692   -0.212302
      6          6           0        2.826360   -2.548659    0.098568
      7          1           0        1.786715   -4.463707   -0.252985
      8          6           0        2.824019    2.527682    0.289842
      9          6           0        0.623033    2.580945   -0.281074
     10          6           0        1.752469    3.375010    0.039880
     11          1           0        1.783661    4.463064    0.080293
     12          7           0        2.404638   -1.248682    0.042865
     13          7           0        2.403187    1.235286    0.137063
     14          5           0        3.270376   -0.016422    0.356825
     15          9           0        3.730654   -0.066690    1.689559
     16          9           0        4.403372    0.016212   -0.479309
     17          6           0       -1.075811    0.020405   -0.645244
     18          6           0       -1.660987    0.587419   -1.823817
     19          6           0       -1.946270   -0.544975    0.342376
     20          6           0       -3.010433    0.595293   -2.010850
     21          1           0       -0.999269    1.017872   -2.577117
     22          6           0       -3.299742   -0.551249    0.181135
     23          1           0       -1.500994   -0.977494    1.240049
     24          6           0       -3.874520    0.023444   -1.009542
     25          1           0       -3.461924    1.025811   -2.905776
     26          1           0       -3.958487   -0.981668    0.938132
     27          7           0       -5.176461    0.022692   -1.175192
     28          1           0       -5.806928   -0.387948   -0.465570
     29          1           0       -5.582245    0.427684   -2.016186
     30          8           0       -6.850579   -0.077241    1.099992
     31          1           0       -7.394887   -0.879866    1.113145
     32          1           0       -7.491472    0.647928    1.159602
     33          8           0       -5.030212   -0.067704    3.248829
     34          1           0       -5.725072   -0.072350    2.565143
     35          1           0       -4.772589    0.862959    3.289999
     36          6           0       -0.736490   -3.048536   -0.869082
     37          1           0       -1.520018   -2.764516   -0.148347
     38          1           0       -1.048349   -2.662215   -1.852807
     39          1           0       -0.734892   -4.145984   -0.934944
     40          6           0        4.234984   -2.915458    0.434997
     41          1           0        4.938699   -2.562167   -0.334149
     42          1           0        4.546006   -2.465162    1.389545
     43          1           0        4.329425   -4.005964    0.515237
     44          6           0       -0.736011    3.097744   -0.648405
     45          1           0       -1.028807    2.811812   -1.671672
     46          1           0       -1.528778    2.736318    0.025914
     47          1           0       -0.742171    4.196198   -0.602456
     48          6           0        4.232152    2.869342    0.653571
     49          1           0        4.544883    2.344867    1.568832
     50          1           0        4.935954    2.580141   -0.141844
     51          1           0        4.324538    3.950183    0.820355
 ---------------------------------------------------------------------
 Rotational constants (GHZ):           0.2904715           0.1106588           0.0938586
 Standard basis: def2SVP (5D, 7F)
 There are   525 symmetry adapted cartesian basis functions of A   symmetry.
 There are   498 symmetry adapted basis functions of A   symmetry.
   498 basis functions,   843 primitive gaussians,   525 cartesian basis functions
    99 alpha electrons       99 beta electrons
       nuclear repulsion energy      2535.0821345892 Hartrees.
 NAtoms=   51 NActive=   51 NUniq=   51 SFac= 1.00D+00 NAtFMM=   60 NAOKFM=F Big=F
 Integral buffers will be    131072 words long.
 Regular integral format.
 Two-electron integral symmetry is turned on.
 ------------------------------------------------------------------------------
 Polarizable Continuum Model (PCM)
 =================================
 Model                : PCM.
 Atomic radii         : SMD-Coulomb.
 Polarization charges : Total charges.
 Charge compensation  : None.
 Solution method      : On-the-fly selection.
 Cavity type          : VdW (van der Waals Surface) (Alpha=1.000).
 Cavity algorithm     : GePol (No added spheres)
                        Default sphere list used, NSphG=   51.
                        Lebedev-Laikov grids with approx.  5.0 points / Ang**2.
                        Smoothing algorithm: York/Karplus (Gamma=1.0000).
                        Polarization charges: spherical gaussians, with
                                              point-specific exponents (IZeta= 3).
                        Self-potential: point-specific (ISelfS= 7).
                        Self-field    : sphere-specific E.n sum rule (ISelfD= 2).
 1st derivatives      : Analytical E(r).r(x)/FMM algorithm (CHGder, D1EAlg=3).
                        Cavity 1st derivative terms included.
 Solvent              : Ethanol, Eps=  24.852000 Eps(inf)=   1.852593
 ------------------------------------------------------------------------------
 ------------------------------------------------------------------------------
 Atomic radii for non-electrostatic terms: SMD-CDS.
 ------------------------------------------------------------------------------
 Nuclear repulsion after PCM non-electrostatic terms =     2535.0811142090 Hartrees.
 One-electron integrals computed using PRISM.
   1 Symmetry operations used in ECPInt.
 ECPInt:  NShTT=   27495 NPrTT=   99213 LenC2=   23297 LenP2D=   56587.
 LDataN:  DoStor=T MaxTD1= 4 Len=   56
 NBasis=   498 RedAO= T EigKep=  2.59D-04  NBF=   498
 NBsUse=   498 1.00D-06 EigRej= -1.00D+00 NBFU=   498
 ExpMin= 8.36D-02 ExpMax= 2.89D+03 ExpMxC= 4.35D+02 IAcc=3 IRadAn=         5 AccDes= 0.00D+00
 Harris functional with IExCor= 1009 and IRadAn=       5 diagonalized for initial guess.
 HarFok:  IExCor= 1009 AccDes= 0.00D+00 IRadAn=         5 IDoV= 1 UseB2=F ITyADJ=14
 ICtDFT=  3500011 ScaDFX=  1.000000  1.000000  1.000000  1.000000
 FoFCou: FMM=F IPFlag=           0 FMFlag=      100000 FMFlg1=           0
         NFxFlg=           0 DoJE=T BraDBF=F KetDBF=T FulRan=T
         wScrn=  0.000000 ICntrl=       500 IOpCl=  0 I1Cent=   200000004 NGrid=           0
         NMat0=    1 NMatS0=      1 NMatT0=    0 NMatD0=    1 NMtDS0=    0 NMtDT0=    0
 Petite list used in FoFCou.
 Requested convergence on RMS density matrix=1.00D-08 within 128 cycles.
 Requested convergence on MAX density matrix=1.00D-06.
 Requested convergence on             energy=1.00D-06.
 No special actions if energy rises.
 Inv3:  Mode=1 IEnd=    39139632.
 Iteration    1 A*A^-1 deviation from unit magnitude is 1.11D-14 for   1070.
 Iteration    1 A*A^-1 deviation from orthogonality  is 5.46D-15 for   2039    812.
 Iteration    1 A^-1*A deviation from unit magnitude is 1.13D-14 for    635.
 Iteration    1 A^-1*A deviation from orthogonality  is 4.84D-15 for   3466    245.
 Error on total polarization charges =  0.04782
 SCF Done:  E(RM062X) =  -1276.49815750     A.U. after   14 cycles
            NFock= 14  Conv=0.47D-08     -V/T= 2.0100
 SMD-CDS (non-electrostatic) energy       (kcal/mol) =      -0.64
 (included in total energy above)
 DoSCS=F DFT=T ScalE2(SS,OS)=  1.000000  1.000000
 ExpMin= 8.36D-02 ExpMax= 2.89D+03 ExpMxC= 4.35D+02 IAcc=3 IRadAn=         5 AccDes= 0.00D+00
 HarFok:  IExCor=  205 AccDes= 0.00D+00 IRadAn=         5 IDoV=-2 UseB2=F ITyADJ=14
 ICtDFT= 12500011 ScaDFX=  1.000000  1.000000  1.000000  1.000000
 GSVD:  LWork=        -945 too small for GESVD, short by        4050 words or        4050 for optimal perf.
 Range of M.O.s used for correlation:    28   498
 NBasis=   498 NAE=    99 NBE=    99 NFC=    27 NFV=     0
 NROrb=    471 NOA=    72 NOB=    72 NVA=   399 NVB=   399

 **** Warning!!: The largest alpha MO coefficient is  0.12490314D+02

 NEqPCM:  Using equilibrium solvation (IEInf=0, Eps=  24.8520, EpsInf=   1.8526)
 Orbital symmetries:
       Occupied  (A) (A) (A) (A) (A) (A) (A) (A) (A) (A) (A) (A)
                 (A) (A) (A) (A) (A) (A) (A) (A) (A) (A) (A) (A)
                 (A) (A) (A) (A) (A) (A) (A) (A) (A) (A) (A) (A)
                 (A) (A) (A) (A) (A) (A) (A) (A) (A) (A) (A) (A)
                 (A) (A) (A) (A) (A) (A) (A) (A) (A) (A) (A) (A)
                 (A) (A) (A) (A) (A) (A) (A) (A) (A) (A) (A) (A)
                 (A) (A) (A) (A) (A) (A) (A) (A) (A) (A) (A) (A)
                 (A) (A) (A) (A) (A) (A) (A) (A) (A) (A) (A) (A)
                 (A) (A) (A)
       Virtual   (A) (A) (A) (A) (A) (A) (A) (A) (A) (A) (A) (A)
                 (A) (A) (A) (A) (A) (A) (A) (A) (A) (A) (A) (A)
                 (A) (A) (A) (A) (A) (A) (A) (A) (A) (A) (A) (A)
                 (A) (A) (A) (A) (A) (A) (A) (A) (A) (A) (A) (A)
                 (A) (A) (A) (A) (A) (A) (A) (A) (A) (A) (A) (A)
                 (A) (A) (A) (A) (A) (A) (A) (A) (A) (A) (A) (A)
                 (A) (A) (A) (A) (A) (A) (A) (A) (A) (A) (A) (A)
                 (A) (A) (A) (A) (A) (A) (A) (A) (A) (A) (A) (A)
                 (A) (A) (A) (A) (A) (A) (A) (A) (A) (A) (A) (A)
                 (A) (A) (A) (A) (A) (A) (A) (A) (A) (A) (A) (A)
                 (A) (A) (A) (A) (A) (A) (A) (A) (A) (A) (A) (A)
                 (A) (A) (A) (A) (A) (A) (A) (A) (A) (A) (A) (A)
                 (A) (A) (A) (A) (A) (A) (A) (A) (A) (A) (A) (A)
                 (A) (A) (A) (A) (A) (A) (A) (A) (A) (A) (A) (A)
                 (A) (A) (A) (A) (A) (A) (A) (A) (A) (A) (A) (A)
                 (A) (A) (A) (A) (A) (A) (A) (A) (A) (A) (A) (A)
                 (A) (A) (A) (A) (A) (A) (A) (A) (A) (A) (A) (A)
                 (A) (A) (A) (A) (A) (A) (A) (A) (A) (A) (A) (A)
                 (A) (A) (A) (A) (A) (A) (A) (A) (A) (A) (A) (A)
                 (A) (A) (A) (A) (A) (A) (A) (A) (A) (A) (A) (A)
                 (A) (A) (A) (A) (A) (A) (A) (A) (A) (A) (A) (A)
                 (A) (A) (A) (A) (A) (A) (A) (A) (A) (A) (A) (A)
                 (A) (A) (A) (A) (A) (A) (A) (A) (A) (A) (A) (A)
                 (A) (A) (A) (A) (A) (A) (A) (A) (A) (A) (A) (A)
                 (A) (A) (A) (A) (A) (A) (A) (A) (A) (A) (A) (A)
                 (A) (A) (A) (A) (A) (A) (A) (A) (A) (A) (A) (A)
                 (A) (A) (A) (A) (A) (A) (A) (A) (A) (A) (A) (A)
                 (A) (A) (A) (A) (A) (A) (A) (A) (A) (A) (A) (A)
                 (A) (A) (A) (A) (A) (A) (A) (A) (A) (A) (A) (A)
                 (A) (A) (A) (A) (A) (A) (A) (A) (A) (A) (A) (A)
                 (A) (A) (A) (A) (A) (A) (A) (A) (A) (A) (A) (A)
                 (A) (A) (A) (A) (A) (A) (A) (A) (A) (A) (A) (A)
                 (A) (A) (A) (A) (A) (A) (A) (A) (A) (A) (A) (A)
                 (A) (A) (A)
    20 initial guesses have been made.
 Convergence on wavefunction:    0.000001000000000
 Iteration     1 Dimension    20 NMult     0 NNew     20
 CISAX will form    20 AO SS matrices at one time.
 Iteration     2 Dimension    30 NMult    20 NNew     10
 Iteration     3 Dimension    40 NMult    30 NNew     10
 Iteration     4 Dimension    50 NMult    40 NNew     10
 Iteration     5 Dimension    60 NMult    50 NNew     10
 Iteration     6 Dimension    70 NMult    60 NNew     10
 Iteration     7 Dimension    80 NMult    70 NNew     10
 Iteration     8 Dimension    90 NMult    80 NNew     10
 Iteration     9 Dimension   100 NMult    90 NNew     10
 Iteration    10 Dimension   106 NMult   100 NNew      6
 Iteration    11 Dimension   110 NMult   106 NNew      4
 Iteration    12 Dimension   112 NMult   110 NNew      2
 ***********************************************************************
 Excited states from <AA,BB:AA,BB> singles matrix:
 ***********************************************************************
 
 Ground to excited state transition densities written to RWF  633
 Ground to excited state transition electric dipole moments (Au):
       state          X           Y           Z        Dip. S.      Osc.
         1        -2.2763     -0.5417     -0.3954      5.6312      0.3148
         2         0.3677     -3.5725     -0.0926     12.9066      0.8227
         3        -0.0063     -0.4896     -0.0459      0.2419      0.0215
         4        -1.0010      0.0263     -0.2607      1.0706      0.1034
         5        -0.0393     -0.0853      0.4816      0.2408      0.0260
 Ground to excited state transition velocity dipole moments (Au):
       state          X           Y           Z        Dip. S.      Osc.
         1         0.1907      0.0464      0.0331      0.0396      0.3150
         2        -0.0347      0.3442      0.0092      0.1198      0.8350
         3         0.0012      0.0690      0.0065      0.0048      0.0240
         4         0.1463     -0.0037      0.0377      0.0228      0.1051
         5         0.0082      0.0165     -0.0870      0.0079      0.0326
 Ground to excited state transition magnetic dipole moments (Au):
       state          X           Y           Z
         1        -0.1097     -0.1852      0.0198
         2         0.3602      0.0364      0.0346
         3        -0.3904     -0.0054      1.7624
         4         0.0424     -0.1375     -0.0032
         5         0.0257      0.1838      0.0366
 Ground to excited state transition velocity quadrupole moments (Au):
       state          XX          YY          ZZ          XY          XZ          YZ
         1        -0.6419      0.4841     -0.0902      0.1792     -0.2027      0.0328
         2         0.1136     -0.0906      0.0086      1.2530      0.0798     -0.0427
         3         0.0030      0.0069     -0.0217     -0.4521     -0.0202     -0.1890
         4         0.6354     -0.3475     -0.0412      0.0010      0.0244     -0.0222
         5        -0.1866      0.0266      0.2935     -0.3144      0.4996     -0.0673
 <0|del|b> * <b|rxdel|0> + <0|del|b> * <b|delr+rdel|0>
 Rotatory Strengths (R) in cgs (10**-40 erg-esu-cm/Gauss)
       state          XX          YY          ZZ    R(velocity)    E-M Angle
         1        31.2106    -84.1608   -190.4773    -81.1425      132.13
         2       -11.3094    -82.2562     96.2320      0.8888       89.84
         3        25.2131     36.2554     -5.3016     18.7223       85.14
         4         1.2425      6.8342     24.0841     10.7203       72.36
         5        41.3874    -67.3878     26.2608      0.0868       90.00
 1/2[<0|r|b>*<b|rxdel|0> + (<0|rxdel|b>*<b|r|0>)*]
 Rotatory Strengths (R) in cgs (10**-40 erg-esu-cm/Gauss)
       state          XX          YY          ZZ     R(length)
         1      -176.6571    -70.9310      5.5376    -80.6835
         2       -93.6551     92.0254      2.2649      0.2117
         3        -1.7473     -1.8677     57.2206     17.8685
         4        30.0353      2.5607     -0.5826     10.6711
         5         0.7133     11.0872    -12.4557     -0.2184
  1/2[<0|del|b>*<b|r|0> + (<0|r|b>*<b|del|0>)*] (Au)
       state          X           Y           Z        Dip. S.   Osc.(frdel)
         1        -0.4341     -0.0251     -0.0131      0.4723      0.3149
         2        -0.0128     -1.2296     -0.0009      1.2432      0.8288
         3        -0.0000     -0.0338     -0.0003      0.0341      0.0227
         4        -0.1464     -0.0001     -0.0098      0.1564      0.1042
         5        -0.0003     -0.0014     -0.0419      0.0436      0.0291

 Excitation energies and oscillator strengths:
 
 Excited State   1:      Singlet-A      2.2816 eV  543.41 nm  f=0.3148  <S**2>=0.000
      99 ->100         0.69632
 
 Excited State   2:      Singlet-A      2.6017 eV  476.56 nm  f=0.8227  <S**2>=0.000
      98 ->100         0.70126
 This state for optimization and/or second-order correction.
 Total Energy, E(TD-HF/TD-DFT) =  -1276.40254769    
 Copying the excited state density for this state as the 1-particle RhoCI density.
 
 Excited State   3:      Singlet-A      3.6329 eV  341.28 nm  f=0.0215  <S**2>=0.000
      97 ->100         0.69892
 
 Excited State   4:      Singlet-A      3.9435 eV  314.40 nm  f=0.1034  <S**2>=0.000
      96 ->100         0.70211
 
 Excited State   5:      Singlet-A      4.4099 eV  281.15 nm  f=0.0260  <S**2>=0.000
      95 ->100         0.55020
      99 ->101        -0.42040
 SavETr:  write IOETrn=   770 NScale= 10 NData=  16 NLR=1 NState=    5 LETran=     100.
          IDoAtm=11111111111111111111111111111111111111111111111111
          IDoAtm=1
 NEqPCM:  Using equilibrium solvation (IEInf=0, Eps=  24.8520, EpsInf=   1.8526)
          Differentiating once with respect to electric field.
                with respect to dipole field.
          Differentiating once with respect to nuclear coordinates.
          There are     1 degrees of freedom in the 1st order CPHF.  IDoFFX=0 NUNeed=     1.
 LinEq1:  Iter=  0 NonCon=     1 RMS=2.57D-03 Max=3.13D-01 NDo=     1
 AX will form     1 AO Fock derivatives at one time.
 LinEq1:  Iter=  1 NonCon=     1 RMS=9.81D-04 Max=1.21D-01 NDo=     1
 LinEq1:  Iter=  2 NonCon=     1 RMS=6.19D-04 Max=4.54D-02 NDo=     1
 LinEq1:  Iter=  3 NonCon=     1 RMS=1.29D-04 Max=6.70D-03 NDo=     1
 LinEq1:  Iter=  4 NonCon=     1 RMS=7.99D-05 Max=5.53D-03 NDo=     1
 LinEq1:  Iter=  5 NonCon=     1 RMS=3.14D-05 Max=1.67D-03 NDo=     1
 LinEq1:  Iter=  6 NonCon=     1 RMS=1.83D-05 Max=1.11D-03 NDo=     1
 LinEq1:  Iter=  7 NonCon=     1 RMS=7.93D-06 Max=5.76D-04 NDo=     1
 LinEq1:  Iter=  8 NonCon=     1 RMS=4.15D-06 Max=2.91D-04 NDo=     1
 LinEq1:  Iter=  9 NonCon=     1 RMS=2.18D-06 Max=1.93D-04 NDo=     1
 LinEq1:  Iter= 10 NonCon=     1 RMS=8.45D-07 Max=3.28D-05 NDo=     1
 LinEq1:  Iter= 11 NonCon=     1 RMS=3.79D-07 Max=1.78D-05 NDo=     1
 LinEq1:  Iter= 12 NonCon=     1 RMS=1.66D-07 Max=7.83D-06 NDo=     1
 LinEq1:  Iter= 13 NonCon=     1 RMS=7.69D-08 Max=3.46D-06 NDo=     1
 LinEq1:  Iter= 14 NonCon=     1 RMS=3.15D-08 Max=1.85D-06 NDo=     1
 LinEq1:  Iter= 15 NonCon=     1 RMS=1.62D-08 Max=8.31D-07 NDo=     1
 LinEq1:  Iter= 16 NonCon=     1 RMS=5.73D-09 Max=4.28D-07 NDo=     1
 LinEq1:  Iter= 17 NonCon=     1 RMS=3.11D-09 Max=1.80D-07 NDo=     1
 LinEq1:  Iter= 18 NonCon=     1 RMS=1.42D-09 Max=7.22D-08 NDo=     1
 LinEq1:  Iter= 19 NonCon=     1 RMS=8.31D-10 Max=4.92D-08 NDo=     1
 LinEq1:  Iter= 20 NonCon=     1 RMS=3.42D-10 Max=1.30D-08 NDo=     1
 LinEq1:  Iter= 21 NonCon=     1 RMS=1.26D-10 Max=4.21D-09 NDo=     1
 LinEq1:  Iter= 22 NonCon=     1 RMS=7.17D-11 Max=2.62D-09 NDo=     1
 LinEq1:  Iter= 23 NonCon=     0 RMS=2.00D-11 Max=6.13D-10 NDo=     1
 Linear equations converged to 1.000D-10 1.000D-09 after    23 iterations.
 End of Minotr F.D. properties file   721 does not exist.
 End of Minotr F.D. properties file   722 does not exist.
 End of Minotr F.D. properties file   788 does not exist.

 **********************************************************************

            Population analysis using the SCF density.

 **********************************************************************

 Orbital symmetries:
       Occupied  (A) (A) (A) (A) (A) (A) (A) (A) (A) (A) (A) (A)
                 (A) (A) (A) (A) (A) (A) (A) (A) (A) (A) (A) (A)
                 (A) (A) (A) (A) (A) (A) (A) (A) (A) (A) (A) (A)
                 (A) (A) (A) (A) (A) (A) (A) (A) (A) (A) (A) (A)
                 (A) (A) (A) (A) (A) (A) (A) (A) (A) (A) (A) (A)
                 (A) (A) (A) (A) (A) (A) (A) (A) (A) (A) (A) (A)
                 (A) (A) (A) (A) (A) (A) (A) (A) (A) (A) (A) (A)
                 (A) (A) (A) (A) (A) (A) (A) (A) (A) (A) (A) (A)
                 (A) (A) (A)
       Virtual   (A) (A) (A) (A) (A) (A) (A) (A) (A) (A) (A) (A)
                 (A) (A) (A) (A) (A) (A) (A) (A) (A) (A) (A) (A)
                 (A) (A) (A) (A) (A) (A) (A) (A) (A) (A) (A) (A)
                 (A) (A) (A) (A) (A) (A) (A) (A) (A) (A) (A) (A)
                 (A) (A) (A) (A) (A) (A) (A) (A) (A) (A) (A) (A)
                 (A) (A) (A) (A) (A) (A) (A) (A) (A) (A) (A) (A)
                 (A) (A) (A) (A) (A) (A) (A) (A) (A) (A) (A) (A)
                 (A) (A) (A) (A) (A) (A) (A) (A) (A) (A) (A) (A)
                 (A) (A) (A) (A) (A) (A) (A) (A) (A) (A) (A) (A)
                 (A) (A) (A) (A) (A) (A) (A) (A) (A) (A) (A) (A)
                 (A) (A) (A) (A) (A) (A) (A) (A) (A) (A) (A) (A)
                 (A) (A) (A) (A) (A) (A) (A) (A) (A) (A) (A) (A)
                 (A) (A) (A) (A) (A) (A) (A) (A) (A) (A) (A) (A)
                 (A) (A) (A) (A) (A) (A) (A) (A) (A) (A) (A) (A)
                 (A) (A) (A) (A) (A) (A) (A) (A) (A) (A) (A) (A)
                 (A) (A) (A) (A) (A) (A) (A) (A) (A) (A) (A) (A)
                 (A) (A) (A) (A) (A) (A) (A) (A) (A) (A) (A) (A)
                 (A) (A) (A) (A) (A) (A) (A) (A) (A) (A) (A) (A)
                 (A) (A) (A) (A) (A) (A) (A) (A) (A) (A) (A) (A)
                 (A) (A) (A) (A) (A) (A) (A) (A) (A) (A) (A) (A)
                 (A) (A) (A) (A) (A) (A) (A) (A) (A) (A) (A) (A)
                 (A) (A) (A) (A) (A) (A) (A) (A) (A) (A) (A) (A)
                 (A) (A) (A) (A) (A) (A) (A) (A) (A) (A) (A) (A)
                 (A) (A) (A) (A) (A) (A) (A) (A) (A) (A) (A) (A)
                 (A) (A) (A) (A) (A) (A) (A) (A) (A) (A) (A) (A)
                 (A) (A) (A) (A) (A) (A) (A) (A) (A) (A) (A) (A)
                 (A) (A) (A) (A) (A) (A) (A) (A) (A) (A) (A) (A)
                 (A) (A) (A) (A) (A) (A) (A) (A) (A) (A) (A) (A)
                 (A) (A) (A) (A) (A) (A) (A) (A) (A) (A) (A) (A)
                 (A) (A) (A) (A) (A) (A) (A) (A) (A) (A) (A) (A)
                 (A) (A) (A) (A) (A) (A) (A) (A) (A) (A) (A) (A)
                 (A) (A) (A) (A) (A) (A) (A) (A) (A) (A) (A) (A)
                 (A) (A) (A) (A) (A) (A) (A) (A) (A) (A) (A) (A)
                 (A) (A) (A)
 The electronic state is 1-A.
 Alpha  occ. eigenvalues --  -25.19516 -25.19454 -19.64421 -19.59973 -14.77888
 Alpha  occ. eigenvalues --  -14.77879 -14.76102 -10.61066 -10.60551 -10.60028
 Alpha  occ. eigenvalues --  -10.59961 -10.58638 -10.58631 -10.57077 -10.57009
 Alpha  occ. eigenvalues --  -10.56219 -10.56156 -10.55593 -10.54959 -10.54944
 Alpha  occ. eigenvalues --  -10.54619 -10.54570 -10.54564 -10.54551 -10.54276
 Alpha  occ. eigenvalues --  -10.54252  -7.12966  -1.28130  -1.24570  -1.12015
 Alpha  occ. eigenvalues --   -1.08639  -1.07763  -1.06771  -1.02790  -0.94601
 Alpha  occ. eigenvalues --   -0.89917  -0.88838  -0.88124  -0.84807  -0.83782
 Alpha  occ. eigenvalues --   -0.83333  -0.78666  -0.78322  -0.78084  -0.74748
 Alpha  occ. eigenvalues --   -0.70228  -0.69057  -0.68312  -0.66138  -0.63420
 Alpha  occ. eigenvalues --   -0.62386  -0.62048  -0.60707  -0.60198  -0.59938
 Alpha  occ. eigenvalues --   -0.58603  -0.58123  -0.57358  -0.56671  -0.55089
 Alpha  occ. eigenvalues --   -0.54098  -0.51940  -0.51637  -0.51125  -0.50039
 Alpha  occ. eigenvalues --   -0.49851  -0.49470  -0.49063  -0.48920  -0.48226
 Alpha  occ. eigenvalues --   -0.47867  -0.47575  -0.47288  -0.47046  -0.45999
 Alpha  occ. eigenvalues --   -0.45908  -0.45795  -0.45688  -0.45646  -0.45423
 Alpha  occ. eigenvalues --   -0.44649  -0.44269  -0.44136  -0.43437  -0.43406
 Alpha  occ. eigenvalues --   -0.42550  -0.42097  -0.41056  -0.40386  -0.39732
 Alpha  occ. eigenvalues --   -0.39018  -0.36922  -0.36784  -0.33293  -0.31449
 Alpha  occ. eigenvalues --   -0.30538  -0.29548  -0.25190  -0.23570
 Alpha virt. eigenvalues --   -0.07600   0.02896   0.04045   0.07073   0.08255
 Alpha virt. eigenvalues --    0.08640   0.10865   0.11084   0.12153   0.12376
 Alpha virt. eigenvalues --    0.13172   0.13493   0.13748   0.14253   0.14489
 Alpha virt. eigenvalues --    0.15049   0.15123   0.16388   0.17225   0.17281
 Alpha virt. eigenvalues --    0.17688   0.18448   0.19498   0.19902   0.20393
 Alpha virt. eigenvalues --    0.20645   0.20761   0.21033   0.21192   0.21721
 Alpha virt. eigenvalues --    0.23132   0.23303   0.24231   0.25703   0.26082
 Alpha virt. eigenvalues --    0.26255   0.26492   0.27114   0.28426   0.28784
 Alpha virt. eigenvalues --    0.28977   0.29326   0.30410   0.30497   0.31592
 Alpha virt. eigenvalues --    0.33336   0.33872   0.34482   0.34994   0.36082
 Alpha virt. eigenvalues --    0.37657   0.37880   0.39161   0.40289   0.41097
 Alpha virt. eigenvalues --    0.41371   0.41899   0.43072   0.43723   0.44344
 Alpha virt. eigenvalues --    0.44952   0.45911   0.46293   0.46751   0.46926
 Alpha virt. eigenvalues --    0.47741   0.48008   0.48213   0.48800   0.49256
 Alpha virt. eigenvalues --    0.49652   0.50140   0.51893   0.52348   0.52548
 Alpha virt. eigenvalues --    0.53259   0.54465   0.54528   0.55223   0.56007
 Alpha virt. eigenvalues --    0.56356   0.57035   0.58627   0.59349   0.60784
 Alpha virt. eigenvalues --    0.61140   0.61900   0.62355   0.62767   0.63114
 Alpha virt. eigenvalues --    0.63441   0.63989   0.65026   0.65436   0.65795
 Alpha virt. eigenvalues --    0.66837   0.68125   0.68715   0.69021   0.69637
 Alpha virt. eigenvalues --    0.69984   0.70142   0.70391   0.71309   0.71484
 Alpha virt. eigenvalues --    0.72358   0.72577   0.72797   0.73443   0.73626
 Alpha virt. eigenvalues --    0.74062   0.74119   0.74391   0.74614   0.74910
 Alpha virt. eigenvalues --    0.75116   0.75243   0.76118   0.76688   0.77500
 Alpha virt. eigenvalues --    0.77727   0.77979   0.78214   0.78756   0.78917
 Alpha virt. eigenvalues --    0.79550   0.79768   0.80285   0.81406   0.81864
 Alpha virt. eigenvalues --    0.82311   0.83517   0.84216   0.84551   0.84948
 Alpha virt. eigenvalues --    0.85311   0.86084   0.87014   0.88015   0.89519
 Alpha virt. eigenvalues --    0.91298   0.92656   0.94217   0.94809   0.96348
 Alpha virt. eigenvalues --    0.96432   0.97736   0.97998   0.98489   0.99106
 Alpha virt. eigenvalues --    1.00247   1.02406   1.03894   1.04849   1.05111
 Alpha virt. eigenvalues --    1.06537   1.07051   1.08899   1.09492   1.09946
 Alpha virt. eigenvalues --    1.10456   1.12328   1.13517   1.13778   1.14598
 Alpha virt. eigenvalues --    1.15494   1.16504   1.16693   1.18377   1.21242
 Alpha virt. eigenvalues --    1.21720   1.21948   1.22295   1.25054   1.25713
 Alpha virt. eigenvalues --    1.26453   1.26842   1.28162   1.28877   1.29502
 Alpha virt. eigenvalues --    1.30509   1.31338   1.32722   1.33018   1.34052
 Alpha virt. eigenvalues --    1.34565   1.35838   1.35990   1.37962   1.38437
 Alpha virt. eigenvalues --    1.39414   1.39524   1.39578   1.40462   1.41842
 Alpha virt. eigenvalues --    1.42435   1.43418   1.44534   1.45169   1.46110
 Alpha virt. eigenvalues --    1.46973   1.47740   1.49157   1.51402   1.52757
 Alpha virt. eigenvalues --    1.54652   1.55145   1.56664   1.57243   1.57582
 Alpha virt. eigenvalues --    1.58950   1.59074   1.59290   1.60512   1.61115
 Alpha virt. eigenvalues --    1.62016   1.62889   1.63164   1.64451   1.65668
 Alpha virt. eigenvalues --    1.65931   1.66547   1.68913   1.70506   1.70898
 Alpha virt. eigenvalues --    1.71170   1.72184   1.72576   1.72694   1.73614
 Alpha virt. eigenvalues --    1.75023   1.75938   1.76298   1.77734   1.78040
 Alpha virt. eigenvalues --    1.78170   1.78637   1.78923   1.78995   1.80754
 Alpha virt. eigenvalues --    1.80925   1.81267   1.81404   1.82504   1.82548
 Alpha virt. eigenvalues --    1.83594   1.83890   1.84582   1.84754   1.85017
 Alpha virt. eigenvalues --    1.86100   1.86321   1.87258   1.87420   1.88405
 Alpha virt. eigenvalues --    1.89419   1.89679   1.90473   1.91262   1.91461
 Alpha virt. eigenvalues --    1.92054   1.93015   1.93458   1.94226   1.95683
 Alpha virt. eigenvalues --    1.96477   1.97477   1.98871   1.99354   2.00824
 Alpha virt. eigenvalues --    2.01166   2.01783   2.02217   2.03397   2.03997
 Alpha virt. eigenvalues --    2.04639   2.07109   2.07314   2.08217   2.08429
 Alpha virt. eigenvalues --    2.10295   2.12033   2.12504   2.12787   2.14626
 Alpha virt. eigenvalues --    2.16296   2.17058   2.17475   2.18156   2.19484
 Alpha virt. eigenvalues --    2.19911   2.21048   2.22136   2.22967   2.23354
 Alpha virt. eigenvalues --    2.25076   2.25244   2.25751   2.26089   2.26463
 Alpha virt. eigenvalues --    2.27286   2.28175   2.28456   2.29205   2.30273
 Alpha virt. eigenvalues --    2.30793   2.31290   2.31712   2.32461   2.33082
 Alpha virt. eigenvalues --    2.38160   2.38734   2.39969   2.40226   2.41788
 Alpha virt. eigenvalues --    2.43444   2.44123   2.46246   2.46356   2.46786
 Alpha virt. eigenvalues --    2.47672   2.48615   2.50628   2.51891   2.52225
 Alpha virt. eigenvalues --    2.52572   2.54284   2.54954   2.58844   2.60882
 Alpha virt. eigenvalues --    2.63985   2.64749   2.65548   2.66707   2.68175
 Alpha virt. eigenvalues --    2.68600   2.70519   2.71094   2.72036   2.72601
 Alpha virt. eigenvalues --    2.73321   2.74095   2.74876   2.75711   2.76068
 Alpha virt. eigenvalues --    2.76160   2.76631   2.77682   2.80263   2.80454
 Alpha virt. eigenvalues --    2.83345   2.85331   2.85813   2.92372   2.94101
 Alpha virt. eigenvalues --    2.95045   2.95643   2.96149   2.96469   2.96670
 Alpha virt. eigenvalues --    2.97716   2.98038   2.98827   2.99895   3.02802
 Alpha virt. eigenvalues --    3.03479   3.04282   3.06530   3.07486   3.09041
 Alpha virt. eigenvalues --    3.09853   3.10338   3.13541   3.18995   3.19679
 Alpha virt. eigenvalues --    3.20196   3.21345   3.22914   3.23527   3.24860
 Alpha virt. eigenvalues --    3.25073   3.25176   3.25578   3.26461   3.31171
 Alpha virt. eigenvalues --    3.33555   3.41023   3.44563   3.51001   3.52256
 Alpha virt. eigenvalues --    3.52511   3.56282   3.59649   3.61836   3.68088
 Alpha virt. eigenvalues --    3.80696   3.81908   3.86046   3.88777
          Condensed to atoms (all electrons):
 Mulliken charges:
               1
     1  C    0.036482
     2  C    0.050047
     3  C    0.088024
     4  C   -0.155083
     5  C   -0.142075
     6  C   -0.029054
     7  H    0.028833
     8  C   -0.030534
     9  C   -0.155322
    10  C   -0.143494
    11  H    0.028412
    12  N   -0.209680
    13  N   -0.209463
    14  B    0.222545
    15  F   -0.266935
    16  F   -0.266683
    17  C   -0.171561
    18  C   -0.010791
    19  C   -0.001875
    20  C   -0.078594
    21  H    0.047173
    22  C   -0.077161
    23  H    0.042700
    24  C    0.008731
    25  H    0.028173
    26  H   -0.000768
    27  N   -0.103543
    28  H    0.153462
    29  H    0.168285
    30  O   -0.334302
    31  H    0.239005
    32  H    0.234097
    33  O   -0.425707
    34  H    0.177468
    35  H    0.202252
    36  C    0.072299
    37  H    0.066790
    38  H    0.062435
    39  H    0.048406
    40  C    0.050809
    41  H    0.082816
    42  H    0.082427
    43  H    0.058030
    44  C    0.084652
    45  H    0.068550
    46  H    0.060393
    47  H    0.046253
    48  C    0.050892
    49  H    0.081939
    50  H    0.082461
    51  H    0.057785
 Sum of Mulliken charges =  -0.00000
 Mulliken charges with hydrogens summed into heavy atoms:
               1
     1  C    0.036482
     2  C    0.050047
     3  C    0.088024
     4  C   -0.155083
     5  C   -0.113242
     6  C   -0.029054
     8  C   -0.030534
     9  C   -0.155322
    10  C   -0.115082
    12  N   -0.209680
    13  N   -0.209463
    14  B    0.222545
    15  F   -0.266935
    16  F   -0.266683
    17  C   -0.171561
    18  C    0.036381
    19  C    0.040825
    20  C   -0.050421
    22  C   -0.077929
    24  C    0.008731
    27  N    0.218204
    30  O    0.138800
    33  O   -0.045987
    36  C    0.249930
    40  C    0.274083
    44  C    0.259848
    48  C    0.273077
 Electronic spatial extent (au):  <R**2>=          11751.6676
 Charge=              0.0000 electrons
 Dipole moment (field-independent basis, Debye):
    X=            -16.7250    Y=              1.7609    Z=             -3.7037  Tot=             17.2204
 Quadrupole moment (field-independent basis, Debye-Ang):
   XX=            -77.8189   YY=           -135.5908   ZZ=           -167.4723
   XY=             -7.1662   XZ=              7.6358   YZ=              1.9547
 Traceless Quadrupole moment (field-independent basis, Debye-Ang):
   XX=             49.1418   YY=             -8.6301   ZZ=            -40.5117
   XY=             -7.1662   XZ=              7.6358   YZ=              1.9547
 Octapole moment (field-independent basis, Debye-Ang**2):
  XXX=           -894.5950  YYY=             -0.5374  ZZZ=            -33.8465  XYY=             17.8047
  XXY=             27.6560  XXZ=              2.6812  XZZ=            -16.1376  YZZ=             31.0625
  YYZ=             18.8056  XYZ=            -10.2121
 Hexadecapole moment (field-independent basis, Debye-Ang**3):
 XXXX=          -3719.9419 YYYY=          -3311.5277 ZZZZ=          -1386.0973 XXXY=           -102.7955
 XXXZ=           -327.4791 YYYX=             -8.5659 YYYZ=             20.7435 ZZZX=            176.2621
 ZZZY=             34.0369 XXYY=          -1876.4631 XXZZ=          -1920.5775 YYZZ=           -835.3430
 XXYZ=             75.4499 YYXZ=            -31.2102 ZZXY=           -127.3977
 N-N= 2.535081114209D+03 E-N=-8.050516476805D+03  KE= 1.263921369603D+03
   1 Symmetry operations used in ECPInt.
 ECPInt:  NShTT=   27495 NPrTT=   99213 LenC2=   23297 LenP2D=   56587.
 LDataN:  DoStor=T MaxTD1= 5 Len=  102
 D1PCM: PCM CHGder 1st derivatives, ID1Alg=3 FixD1E=F DoIter=F DoCFld=F I1PDM=6.
 Calling FoFJK, ICntrl=  10005127 FMM=F ISym2X=0 I1Cent= 0 IOpClX= 0 NMat=1 NMatS=1 NMatT=0.
 ***** Axes restored to original set *****
 -------------------------------------------------------------------
 Center     Atomic                   Forces (Hartrees/Bohr)
 Number     Number              X              Y              Z
 -------------------------------------------------------------------
      1        6           0.007787177    0.028919944    0.005472886
      2        6           0.008702322   -0.024544314   -0.001831854
      3        6           0.000599336    0.001375373    0.006964529
      4        6           0.001145927   -0.036372913   -0.000373159
      5        6          -0.030427464   -0.002674725   -0.007466969
      6        6           0.018117034    0.020039588    0.003908249
      7        1           0.000015647    0.000262265    0.000032901
      8        6           0.015950766   -0.017898776    0.003899343
      9        6           0.001272102    0.030583564   -0.000681346
     10        6          -0.026503091    0.001631608   -0.007223768
     11        1          -0.000022724   -0.000250171    0.000131384
     12        7           0.007981460   -0.003802943    0.001263060
     13        7           0.008106493    0.003642324   -0.000643435
     14        5           0.009041238    0.001266478    0.002836347
     15        9          -0.002218909   -0.000208490   -0.003293232
     16        9          -0.003770487   -0.000273998    0.001397308
     17        6          -0.024644870   -0.001604412   -0.007410776
     18        6           0.026323171   -0.013619111    0.022624081
     19        6           0.029260987    0.012023966   -0.015301878
     20        6          -0.026038876   -0.008994635    0.014855239
     21        1           0.000159139   -0.002140133   -0.001284527
     22        6          -0.020940169    0.007624920   -0.020418504
     23        1           0.000599745   -0.000003871    0.001338161
     24        6           0.044337354    0.000353567    0.006584539
     25        1          -0.000431200   -0.000093800   -0.000733456
     26        1          -0.000582080    0.002526151    0.000219193
     27        7          -0.048431931   -0.006724050   -0.004094019
     28        1           0.008229451    0.011341469   -0.010513594
     29        1           0.000635273   -0.002273469    0.004505621
     30        8          -0.002992382   -0.003321176    0.003708292
     31        1          -0.000769454    0.001361096    0.001453129
     32        1           0.000564765   -0.000894190   -0.001005654
     33        8          -0.000540262   -0.000124296    0.000565440
     34        1           0.000339338   -0.000001155   -0.000637703
     35        1           0.000632416   -0.000715473   -0.000638457
     36        6           0.002393089   -0.005227739    0.000665078
     37        1           0.002946650   -0.002032573   -0.002213203
     38        1          -0.000108796    0.002247063    0.000626446
     39        1           0.001873735    0.000051627   -0.000241953
     40        6          -0.006403984   -0.003261378   -0.000190956
     41        1          -0.000541091    0.001645151   -0.001010609
     42        1          -0.000590411    0.001694519    0.000066897
     43        1          -0.000525912    0.000418622   -0.000345291
     44        6           0.002459854    0.006640158    0.000104936
     45        1           0.001466151    0.003893828    0.004184383
     46        1           0.000785129   -0.002144919   -0.000368449
     47        1           0.001611413    0.000178016    0.001318953
     48        6          -0.005412656    0.002708670    0.000242874
     49        1          -0.000458965   -0.001385938    0.000110360
     50        1          -0.000541610   -0.001466971   -0.000896968
     51        1          -0.000439838   -0.000374349   -0.000259869
 -------------------------------------------------------------------
 Cartesian Forces:  Max     0.048431931 RMS     0.010705049

 GradGradGradGradGradGradGradGradGradGradGradGradGradGradGradGradGradGrad
 Berny optimization.
 FormGI is forming the generalized inverse of G from B-inverse, IUseBI=4.
 Internal  Forces:  Max     0.042843531 RMS     0.006630067
 Search for a local minimum.
 Step number   1 out of a maximum of  282
 All quantities printed in internal units (Hartrees-Bohrs-Radians)
 Mixed Optimization -- RFO/linear search
 Second derivative matrix not updated -- first step.
 ITU=  0
     Eigenvalues ---    0.00230   0.00230   0.00575   0.00625   0.00770
     Eigenvalues ---    0.00772   0.00846   0.00846   0.01146   0.01257
     Eigenvalues ---    0.01293   0.01330   0.01343   0.01395   0.01409
     Eigenvalues ---    0.01535   0.01547   0.01573   0.01601   0.01636
     Eigenvalues ---    0.01640   0.01790   0.01813   0.01867   0.01872
     Eigenvalues ---    0.01932   0.02024   0.02043   0.02043   0.02086
     Eigenvalues ---    0.02087   0.02102   0.02103   0.02105   0.02248
     Eigenvalues ---    0.02268   0.02850   0.05043   0.05604   0.06462
     Eigenvalues ---    0.06783   0.06937   0.06940   0.07256   0.07256
     Eigenvalues ---    0.07270   0.07271   0.07351   0.07351   0.09349
     Eigenvalues ---    0.10150   0.11500   0.14160   0.14252   0.15502
     Eigenvalues ---    0.16000   0.16000   0.16000   0.16000   0.16000
     Eigenvalues ---    0.16000   0.16000   0.16000   0.16000   0.16000
     Eigenvalues ---    0.16000   0.16000   0.16000   0.16000   0.16000
     Eigenvalues ---    0.16000   0.16000   0.16000   0.16000   0.16000
     Eigenvalues ---    0.16000   0.16000   0.22000   0.22930   0.23802
     Eigenvalues ---    0.23810   0.24000   0.24799   0.24944   0.24977
     Eigenvalues ---    0.24985   0.24988   0.24989   0.24992   0.24996
     Eigenvalues ---    0.24998   0.24998   0.24998   0.25000   0.25000
     Eigenvalues ---    0.28345   0.28423   0.32412   0.32422   0.33018
     Eigenvalues ---    0.33021   0.33454   0.33471   0.33480   0.33491
     Eigenvalues ---    0.33599   0.33601   0.33649   0.33653   0.33745
     Eigenvalues ---    0.33746   0.33957   0.33957   0.34594   0.34651
     Eigenvalues ---    0.34679   0.34708   0.34899   0.34901   0.36948
     Eigenvalues ---    0.37114   0.38024   0.38408   0.39672   0.39852
     Eigenvalues ---    0.40101   0.40189   0.40462   0.40685   0.40947
     Eigenvalues ---    0.42140   0.43865   0.44133   0.44241   0.44688
     Eigenvalues ---    0.45345   0.46653   0.47436   0.49305   0.49782
     Eigenvalues ---    0.49834   0.52402   0.52404   0.53403   0.53454
     Eigenvalues ---    0.54090   0.63854
 RFO step:  Lambda=-3.70644574D-02 EMin= 2.30000000D-03
 Linear search not attempted -- first point.
 Iteration  1 RMS(Cart)=  0.16794211 RMS(Int)=  0.00698319
 Iteration  2 RMS(Cart)=  0.01335385 RMS(Int)=  0.00029578
 Iteration  3 RMS(Cart)=  0.00010164 RMS(Int)=  0.00029293
 Iteration  4 RMS(Cart)=  0.00000003 RMS(Int)=  0.00029293
 Variable       Old X    -DE/DX   Delta X   Delta X   Delta X     New X
                                 (Linear)    (Quad)   (Total)
    R1        2.70067   0.00718   0.00000   0.01640   0.01653   2.71720
    R2        2.66759   0.03404   0.00000   0.07391   0.07398   2.74157
    R3        2.61657   0.00607   0.00000   0.01248   0.01259   2.62916
    R4        2.70083   0.01296   0.00000   0.02988   0.03003   2.73085
    R5        2.66800   0.03378   0.00000   0.07404   0.07416   2.74216
    R6        2.61658   0.00992   0.00000   0.02164   0.02182   2.63840
    R7        2.75925   0.01505   0.00000   0.03703   0.03703   2.79628
    R8        2.67868  -0.02037   0.00000  -0.04388  -0.04396   2.63472
    R9        2.83379  -0.00446   0.00000  -0.01234  -0.01234   2.82145
   R10        2.62429   0.01717   0.00000   0.03144   0.03132   2.65561
   R11        2.05836  -0.00026   0.00000  -0.00068  -0.00068   2.05768
   R12        2.58478  -0.00938   0.00000  -0.01812  -0.01812   2.56666
   R13        2.82320  -0.00807   0.00000  -0.02198  -0.02198   2.80122
   R14        2.62439   0.01274   0.00000   0.02196   0.02178   2.64617
   R15        2.58467  -0.01019   0.00000  -0.01965  -0.01965   2.56502
   R16        2.82314  -0.00677   0.00000  -0.01842  -0.01842   2.80472
   R17        2.67860  -0.01799   0.00000  -0.03927  -0.03938   2.63922
   R18        2.83397  -0.00427   0.00000  -0.01183  -0.01183   2.82213
   R19        2.05838  -0.00025   0.00000  -0.00065  -0.00065   2.05773
   R20        2.90707  -0.00611   0.00000  -0.02021  -0.02032   2.88676
   R21        2.90741  -0.00523   0.00000  -0.01657  -0.01671   2.89070
   R22        2.66616  -0.00384   0.00000  -0.00807  -0.00807   2.65810
   R23        2.66167  -0.00386   0.00000  -0.00806  -0.00806   2.65361
   R24        2.70764  -0.02228   0.00000  -0.05058  -0.05059   2.65705
   R25        2.70749  -0.02071   0.00000  -0.04702  -0.04703   2.66045
   R26        2.57450   0.02341   0.00000   0.04165   0.04166   2.61617
   R27        2.06199   0.00022   0.00000   0.00058   0.00058   2.06257
   R28        2.57581   0.02298   0.00000   0.04102   0.04100   2.61681
   R29        2.06245   0.00137   0.00000   0.00357   0.00357   2.06602
   R30        2.72296  -0.01756   0.00000  -0.04040  -0.04038   2.68258
   R31        2.06152   0.00076   0.00000   0.00198   0.00198   2.06349
   R32        2.72432  -0.01760   0.00000  -0.04056  -0.04056   2.68376
   R33        2.06340  -0.00042   0.00000  -0.00108  -0.00108   2.06231
   R34        2.48015   0.04284   0.00000   0.06342   0.06341   2.54356
   R35        1.95445  -0.01111   0.00000  -0.02424  -0.02424   1.93022
   R36        1.92339  -0.00487   0.00000  -0.01007  -0.01007   1.91333
   R37        3.60375   0.00359   0.00000   0.04099   0.04099   3.64474
   R38        1.83279  -0.00062   0.00000  -0.00109  -0.00109   1.83170
   R39        1.83232  -0.00107   0.00000  -0.00188  -0.00188   1.83045
   R40        3.49137  -0.00034   0.00000  -0.00362  -0.00362   3.48776
   R41        1.84215  -0.00001   0.00000  -0.00002  -0.00002   1.84213
   R42        1.82649  -0.00053   0.00000  -0.00091  -0.00091   1.82558
   R43        2.08217  -0.00410   0.00000  -0.01102  -0.01102   2.07115
   R44        2.08232   0.00016   0.00000   0.00043   0.00043   2.08274
   R45        2.07761  -0.00004   0.00000  -0.00010  -0.00010   2.07751
   R46        2.08009   0.00086   0.00000   0.00229   0.00229   2.08238
   R47        2.07927   0.00065   0.00000   0.00174   0.00174   2.08101
   R48        2.07402  -0.00050   0.00000  -0.00133  -0.00133   2.07269
   R49        2.08261  -0.00540   0.00000  -0.01452  -0.01452   2.06809
   R50        2.08197  -0.00014   0.00000  -0.00039  -0.00039   2.08159
   R51        2.07762   0.00016   0.00000   0.00043   0.00043   2.07805
   R52        2.07919   0.00057   0.00000   0.00153   0.00153   2.08072
   R53        2.08012   0.00072   0.00000   0.00192   0.00192   2.08205
   R54        2.07403  -0.00043   0.00000  -0.00115  -0.00115   2.07288
    A1        2.28733   0.00394   0.00000   0.01031   0.00943   2.29677
    A2        2.10112   0.00297   0.00000   0.00899   0.00877   2.10989
    A3        1.89473  -0.00690   0.00000  -0.01930  -0.01978   1.87495
    A4        2.28762   0.01219   0.00000   0.03630   0.03532   2.32294
    A5        2.10095  -0.00225   0.00000  -0.00779  -0.00786   2.09308
    A6        1.89462  -0.00994   0.00000  -0.02860  -0.02878   1.86584
    A7        2.09056  -0.00853   0.00000  -0.02483  -0.02449   2.06607
    A8        2.09389  -0.00319   0.00000  -0.01202  -0.01264   2.08125
    A9        2.09239   0.01193   0.00000   0.04095   0.04054   2.13293
   A10        1.84634  -0.00008   0.00000   0.00285   0.00283   1.84917
   A11        2.24076   0.01077   0.00000   0.03582   0.03573   2.27649
   A12        2.19586  -0.01071   0.00000  -0.03905  -0.03908   2.15678
   A13        1.88988   0.00190   0.00000   0.00341   0.00322   1.89310
   A14        2.20286  -0.00091   0.00000  -0.00156  -0.00154   2.20133
   A15        2.19043  -0.00099   0.00000  -0.00194  -0.00191   2.18852
   A16        1.89549   0.00393   0.00000   0.00836   0.00827   1.90376
   A17        2.25445  -0.00243   0.00000  -0.00584  -0.00583   2.24861
   A18        2.13320  -0.00150   0.00000  -0.00263  -0.00261   2.13059
   A19        1.89548   0.00347   0.00000   0.00581   0.00575   1.90123
   A20        2.25435  -0.00201   0.00000  -0.00381  -0.00383   2.25052
   A21        2.13330  -0.00145   0.00000  -0.00184  -0.00186   2.13143
   A22        1.84629   0.00032   0.00000   0.00522   0.00520   1.85149
   A23        2.24152   0.01665   0.00000   0.05631   0.05608   2.29760
   A24        2.19506  -0.01693   0.00000  -0.06076  -0.06098   2.13408
   A25        1.88995   0.00318   0.00000   0.00653   0.00634   1.89629
   A26        2.19037  -0.00160   0.00000  -0.00328  -0.00327   2.18710
   A27        2.20286  -0.00157   0.00000  -0.00315  -0.00316   2.19970
   A28        1.89833   0.00117   0.00000   0.00473   0.00479   1.90312
   A29        2.19556   0.00441   0.00000   0.01461   0.01467   2.21022
   A30        2.18888  -0.00556   0.00000  -0.01902  -0.01920   2.16969
   A31        1.89844   0.00297   0.00000   0.01099   0.01109   1.90954
   A32        2.19565   0.00651   0.00000   0.02374   0.02368   2.21933
   A33        2.18875  -0.00951   0.00000  -0.03519  -0.03538   2.15337
   A34        1.88109  -0.00312   0.00000  -0.01488  -0.01495   1.86614
   A35        1.92606   0.00018   0.00000  -0.00055  -0.00021   1.92586
   A36        1.92847   0.00071   0.00000   0.00176   0.00141   1.92988
   A37        1.92602   0.00126   0.00000   0.00477   0.00466   1.93068
   A38        1.92811   0.00040   0.00000   0.00074   0.00080   1.92891
   A39        1.87461   0.00062   0.00000   0.00837   0.00834   1.88295
   A40        2.12318   0.00402   0.00000   0.01507   0.01505   2.13823
   A41        2.09420   0.00390   0.00000   0.01463   0.01461   2.10880
   A42        2.06580  -0.00792   0.00000  -0.02967  -0.02970   2.03610
   A43        2.11735   0.00461   0.00000   0.01608   0.01602   2.13337
   A44        2.06724  -0.00214   0.00000  -0.00718  -0.00726   2.05998
   A45        2.09859  -0.00247   0.00000  -0.00889  -0.00896   2.08963
   A46        2.12181   0.00405   0.00000   0.01398   0.01389   2.13570
   A47        2.06630  -0.00211   0.00000  -0.00740  -0.00746   2.05884
   A48        2.09507  -0.00194   0.00000  -0.00657  -0.00663   2.08845
   A49        2.09012   0.00495   0.00000   0.01838   0.01841   2.10853
   A50        2.12333  -0.00232   0.00000  -0.00839  -0.00841   2.11492
   A51        2.06974  -0.00263   0.00000  -0.00999  -0.01001   2.05972
   A52        2.08490   0.00534   0.00000   0.01996   0.01994   2.10484
[...]
 00008591,-0.00001817,-0.00001919,-0.00000617,-0.00000689,0.00087381,0.
 00100438,0.00002472,0.00015592,-0.00010070,0.00002747,0.00023054,-0.00
 021884,0.00009143,-0.00006356,-0.00001643,-0.00001952,0.00303890,0.609
 71507,-0.00031454,0.00011999,-0.00018701,0.00046333,0.00025919,0.00354
 367,0.00036138,-0.00049660,0.00041158,0.00005610,0.00048536,-0.0000175
 4,0.00033612,0.00006954,0.00021834,-0.00034174,-0.00010214,-0.00002589
 ,0.00000854,-0.00000636,-0.00005663,-0.02629186,-0.00187078,-0.0724660
 0,-0.00045755,0.00116912,0.00311697,-0.00575195,-0.00076955,0.01068294
 ,0.00058281,-0.00016366,-0.00236376,0.00002345,-0.00013802,-0.00036305
 ,-0.00094483,-0.00218760,0.00261432,-0.00010340,0.00019540,0.00051569,
 -0.00083959,-0.00107161,0.00005649,0.00097842,0.00091616,-0.00016718,-
 0.00022182,0.00009230,0.00009264,-0.00003184,-0.00008718,0.00004391,0.
 00016214,0.00010137,-0.00003341,-0.00002985,-0.00001787,-0.00001319,-0
 .00000526,0.00000564,0.00000226,-0.00005371,-0.00001590,-0.00003907,0.
 00000889,0.00000679,0.00000572,0.00001846,-0.00003356,0.00005497,-0.00
 000210,0.00001383,0.00000239,-0.00000097,0.00000107,-0.00000173,-0.000
 01291,0.00001354,-0.00000907,0.00000402,-0.00000002,-0.00000298,0.0000
 0117,0.00000069,0.00000133,-0.00000127,0.00000006,0.00000175,0.0000005
 4,0.,-0.00000029,0.00000016,-0.00000034,-0.00000033,-0.00000079,0.0000
 0115,0.00000255,0.00000060,-0.00000053,-0.00000101,-0.00000026,-0.0000
 0064,-0.00000075,-0.00005010,-0.00003679,0.00012030,0.00000118,-0.0000
 5178,-0.00005499,0.00000087,0.00005089,-0.00002883,-0.00000189,-0.0000
 0583,-0.00002110,0.00019181,0.00001127,-0.00032333,-0.00000057,-0.0001
 2039,0.00013719,-0.00001439,0.00007903,0.00009226,0.00000392,-0.000001
 44,0.00002056,0.00004834,0.00008445,-0.00070955,-0.00007700,-0.0000416
 1,0.00022066,-0.00009963,-0.00005196,0.00014078,0.00000335,-0.00006374
 ,0.00004924,-0.00204239,-0.00355119,0.53155490,-0.00032646,0.00057180,
 -0.00010129,-0.00164100,0.00135573,0.00032093,0.00007124,-0.00083628,-
 0.00002945,-0.00000037,-0.00033492,0.00005470,-0.00004617,0.00001865,-
 0.00000997,-0.00002243,-0.00011422,0.00003798,0.00000903,0.00000005,-0
 .00001009,-0.01475604,0.01355092,-0.02843634,-0.00160896,-0.00098471,0
 .00060732,-0.00058012,-0.00206630,0.00035739,0.00013321,0.00000295,-0.
 00027959,0.00023590,0.00005292,0.00012519,0.00310812,0.00107644,0.0019
 5877,-0.00106959,-0.00038085,-0.00174075,0.00062871,0.00090558,0.00066
 495,0.00019812,-0.00017966,0.00012217,0.00004698,-0.00002362,0.0000198
 8,-0.00004852,0.00000176,0.00002447,0.00005681,0.00004027,-0.00003759,
 -0.00001097,-0.00000093,-0.00000421,0.00000386,0.00000480,0.00000319,-
 0.00006322,-0.00000631,-0.00003955,0.00000456,0.00000581,0.00000384,0.
 00007197,-0.00002126,0.00005013,-0.00000831,0.00000225,-0.00000404,-0.
 00000712,-0.00000220,-0.00000371,-0.00008664,0.00002683,-0.00001066,0.
 00000816,-0.00000214,-0.00001396,0.00000113,-0.00000692,0.00000515,-0.
 00000322,-0.00000240,0.00000509,0.00000019,0.00000057,-0.00000057,0.00
 000034,-0.00000046,-0.00000038,-0.00000147,0.00000020,0.00000534,0.000
 00084,0.00000006,-0.00000185,-0.00000013,-0.00000049,-0.00000170,0.000
 07777,-0.00000207,0.00002369,-0.00002141,0.00000864,-0.00000173,-0.000
 00945,0.00002781,-0.00001377,0.00000013,-0.00000293,-0.00000428,0.0000
 1183,0.00002301,-0.00003981,0.00001258,-0.00003215,0.00001810,0.000022
 45,-0.00001997,0.00002398,0.00000419,0.00000469,0.00000694,-0.00006556
 ,-0.00025187,0.00003104,-0.00010363,0.00003939,-0.00001634,-0.00016715
 ,0.00005352,-0.00000663,-0.00001355,0.00002733,0.00000952,-0.06473986,
 0.02975501,-0.07494660,0.07493285,-0.00098673,0.00074899,-0.00022272,0
 .00083070,0.00028322,0.00032120,0.00040089,-0.00136157,-0.00019044,0.0
 0009520,0.00040568,0.00004484,0.00029130,0.00011728,0.00004899,-0.0003
 4534,-0.00003341,-0.00010342,0.00000395,-0.00000554,-0.00001029,0.0031
 5163,0.00361883,-0.00695987,0.00016090,0.00002044,-0.00005329,-0.00040
 309,0.00065535,0.00042849,-0.00008769,0.00006907,0.00012939,0.00059045
 ,-0.00020888,0.00048565,-0.00106803,-0.00168860,0.00067956,-0.00182743
 ,-0.00015190,-0.00180456,0.00060588,-0.00038129,0.00124155,0.00040745,
 0.00022881,0.00014178,-0.00005377,0.00002798,0.00010802,-0.00004549,-0
 .00000957,0.00002240,0.00005593,0.00005454,-0.00004288,-0.00001188,-0.
 00000307,-0.00000871,0.00000006,0.00000342,-0.00000013,-0.00004584,-0.
 00001056,-0.00003070,0.00001001,0.00000721,-0.00000055,0.00004588,-0.0
 0002696,0.00005006,-0.00000614,0.00000440,-0.00000247,-0.00000517,0.,-
 0.00000295,-0.00005860,0.00002173,-0.00001190,0.00000613,-0.00000094,-
 0.00000874,0.00000066,-0.00000434,0.00000389,-0.00000326,-0.00000176,0
 .00000217,0.00000053,0.00000050,0.00000003,0.00000054,-0.00000034,0.00
 000004,-0.00000396,-0.00000033,0.00000274,0.00000196,0.00000052,-0.000
 00022,0.00000143,-0.00000043,-0.00000068,-0.00002807,-0.00002323,0.000
 06618,-0.00000090,-0.00002245,-0.00002948,0.00000109,0.00002466,-0.000
 01264,-0.00000586,-0.00000654,-0.00001530,0.00011812,0.00006280,-0.000
 11906,0.00001399,-0.00006449,0.00004973,0.00001444,-0.00000312,0.00006
 607,0.00001301,0.00000196,0.00001304,-0.00006139,-0.00000900,-0.000013
 59,0.00000078,0.00000331,-0.00000051,0.00001716,0.00003930,-0.00000876
 ,-0.00000363,0.00000348,-0.00000057,0.02685656,-0.08355431,0.09225227,
 -0.03428131,0.08370496,0.00017184,0.00002969,0.00005033,-0.00113488,0.
 00046750,-0.00028138,-0.00012556,0.00008883,0.00001710,-0.00004128,-0.
 00027501,0.00006377,-0.00004660,-0.00001659,-0.00005099,0.00009686,-0.
 00019558,0.00005598,0.00000508,0.00000677,0.00000878,-0.00387338,-0.00
 067421,-0.00050295,-0.00055631,-0.00084657,0.00001609,0.00186818,-0.00
 077678,-0.00125386,0.00001898,0.00001568,0.00002871,-0.00002152,0.0003
 3826,-0.00001752,0.00094215,0.00102245,0.00109729,-0.00094354,-0.00080
 814,-0.00071104,0.00068857,0.00147396,-0.00030863,0.00009930,0.0002974
 0,0.00022349,0.00004874,-0.00002616,-0.00003239,-0.00000512,0.00001198
 ,-0.00000506,0.00000156,-0.00000771,0.00000804,0.00000626,0.00000118,0
 .00000033,0.00000146,0.00000124,0.00000081,-0.00000605,0.00000012,-0.0
 0000614,-0.00000175,0.00000166,0.00000094,0.00000647,0.00000196,0.0000
 0370,-0.00000041,-0.00000119,-0.00000072,0.00000005,-0.00000049,0.0000
 0011,-0.00000833,0.00000070,-0.00000027,0.00000061,0.00000030,-0.00000
 135,0.00000011,-0.00000043,0.00000041,-0.00000007,-0.00000102,0.000000
 22,-0.00000028,0.00000022,-0.00000001,0.00000001,0.00000026,0.00000003
 ,-0.00000057,-0.00000112,-0.00000009,0.00000011,0.00000065,0.00000021,
 0.00000049,0.00000043,-0.00000007,0.00005921,0.00000427,-0.00003042,-0
 .00000213,0.00001980,0.00001332,-0.00000472,0.00000493,-0.00000156,0.0
 0000464,0.00000361,0.00000197,-0.00004261,0.00002477,0.00011397,0.0000
 0369,0.00001763,-0.00005495,0.00001512,-0.00007195,-0.00002246,0.00000
 126,0.00000910,-0.00000418,0.00003725,-0.00007182,0.00024300,0.0000046
 5,0.00000330,-0.00003249,-0.00006485,0.00002206,-0.00001958,-0.0000018
 5,0.00001523,-0.00000804,-0.07333302,0.09207117,-0.24975649,0.08128670
 ,-0.09943406,0.26698581,-0.00025464,0.00064263,-0.00005635,-0.00179386
 ,0.00149386,-0.00093294,-0.00004994,-0.00081254,0.00005407,0.00000901,
 -0.00054916,-0.00003403,-0.00017198,0.00000029,-0.00001864,0.00008627,
 -0.00008734,-0.00002543,0.00000686,0.00000140,0.00000843,-0.02254810,0
 .01368855,0.02074883,-0.00153935,-0.00153138,-0.00083521,0.00022554,-0
 .00206528,0.00001580,0.00005196,0.00002902,0.00028935,0.00023427,0.000
 08742,0.00002989,0.00371363,0.00139609,-0.00120216,-0.00159938,-0.0001
 1582,0.00116521,0.00021032,-0.00011942,-0.00005267,0.00079233,0.001040
 32,-0.00051035,0.00012235,-0.00004896,0.00005167,-0.00002070,0.0000280
 1,0.00002543,-0.00002485,0.00000980,-0.00003162,-0.00001172,0.00000252
 ,-0.00000017,0.00000546,0.00000367,0.00000081,-0.00004722,-0.00000202,
 -0.00002513,0.00000286,0.00000542,-0.00000039,0.00007740,-0.00000843,0
 .00002824,-0.00000903,-0.00000239,-0.00000535,-0.00000833,-0.00000320,
 -0.00000330,-0.00009286,0.00002397,-0.00000928,0.00000768,-0.00000209,
 -0.00001401,0.00000053,-0.00000801,0.00000581,-0.00000401,-0.00000317,
 0.00000330,0.00000017,0.00000077,0.00000009,0.00000056,-0.00000028,0.0
 0000012,-0.00000451,-0.00000117,0.00000349,0.00000207,0.00000105,-0.00
 000031,0.00000177,-0.00000022,-0.00000113,0.00010090,0.00001672,-0.000
 00303,-0.00002776,0.00002523,0.00001985,-0.00000981,0.00001135,-0.0000
 0150,0.00000086,-0.00000332,0.00000938,-0.00002375,0.00001746,0.000003
 67,0.00002071,-0.00002280,-0.00000711,0.00001398,-0.00001682,0.0000055
 4,0.00000395,0.00000521,-0.00000565,-0.00002639,-0.00028427,-0.0000367
 3,-0.00015034,0.00008056,-0.00009230,-0.00008828,0.00004534,-0.0000386
 2,-0.00001968,0.00004864,0.00000645,-0.12069686,0.06209717,0.10984950,
 0.00500032,-0.00391105,-0.00687436,0.13549736,-0.00094528,0.00076477,-
 0.00028970,0.00102837,0.00027056,-0.00012125,0.00034558,-0.00132543,0.
 00002248,0.00009420,0.00034995,0.00003514,0.00024639,0.00010231,0.0000
 4335,-0.00035433,0.00000808,-0.00000407,0.00000071,-0.00000639,-0.0000
 0032,0.00079108,0.00408854,0.00762852,0.00010828,0.00001966,0.00017568
 ,-0.00019967,0.00061649,-0.00055386,-0.00003133,0.00005506,-0.00016546
 ,0.00064598,-0.00031825,-0.00001728,-0.00106518,-0.00179316,-0.0006911
 9,-0.00199749,0.00020103,0.00079445,0.00042182,0.00020436,-0.00006541,
 0.00092477,0.00008300,-0.00072180,-0.00003214,0.00001533,0.00011390,-0
 .00002664,-0.00000822,0.00002296,0.00001220,0.00004053,-0.00004403,-0.
 00001792,-0.00000208,-0.00000498,0.00000041,0.00000232,0.00000017,-0.0
 0003181,-0.00000635,-0.00001392,0.00000862,0.00000374,-0.00000187,0.00
 004477,-0.00001662,0.00002764,-0.00000574,0.00000277,-0.00000233,-0.00
 000607,-0.00000043,-0.00000283,-0.00005460,0.00001788,-0.00000794,0.00
 000541,-0.00000114,-0.00000852,0.00000059,-0.00000421,0.00000340,-0.00
 000293,-0.00000139,0.00000288,0.00000053,0.00000042,-0.00000024,0.0000
 0043,-0.00000041,-0.00000020,-0.00000289,0.00000029,0.00000340,0.00000
 145,0.00000008,-0.00000083,0.00000075,-0.00000059,-0.00000097,-0.00001
 533,-0.00002044,0.00001586,0.00000332,-0.00001209,-0.00001768,-0.00000
 372,0.00001096,-0.00000673,-0.00000843,-0.00000723,-0.00001367,0.00006
 657,0.00008117,0.00007871,0.00002643,0.00000441,-0.00004692,0.00001772
 ,-0.00006696,-0.00001273,0.00001617,-0.00000076,-0.00000365,-0.0000667
 0,-0.00000869,0.00003416,0.00000885,0.00000290,-0.00001452,0.00001227,
 0.00004321,-0.00001751,-0.00000805,0.00000361,-0.00001001,0.05903786,-
 0.09323737,-0.08684714,-0.00637887,0.00474275,0.00890435,-0.06880403,0
 .09376322,-0.00016622,0.00010903,-0.00004591,0.00066884,-0.00009624,-0
 .00016716,0.00013042,-0.00025904,-0.00004422,0.00001149,0.00014215,0.0
 0006013,0.00005456,0.00000474,-0.00003159,-0.00011930,0.00013042,-0.00
 000266,-0.00000597,-0.00000575,0.00000527,-0.00290689,0.00485540,0.006
 73995,0.00016043,0.00053384,-0.00019323,-0.00146631,0.00000490,-0.0018
 0803,-0.00001289,-0.00001029,0.00012066,-0.00004347,-0.00029437,0.0000
 6753,-0.00017565,-0.00050926,0.00058605,0.00086571,0.00053314,-0.00038
 037,-0.00009008,-0.00018307,0.00027295,-0.00058980,-0.00098757,-0.0001
 1675,-0.00001900,0.00001671,0.00003192,-0.00001053,-0.00000877,0.00001
 062,0.00000588,0.00001157,-0.00001607,-0.00000761,0.00000027,-0.000002
 06,-0.00000041,-0.00000015,-0.00000069,-0.00000860,-0.00000193,-0.0000
 0372,0.00000295,0.00000059,-0.00000056,0.00001408,-0.00000626,0.000007
 49,-0.00000244,0.00000115,-0.00000070,-0.00000189,0.00000023,-0.000000
 82,-0.00001691,0.00000664,-0.00000291,0.00000153,-0.00000084,-0.000002
 35,0.00000007,-0.00000172,0.00000126,-0.00000100,0.00000024,0.00000052
 ,0.00000034,-0.00000005,0.00000011,0.00000012,-0.00000036,0.00000006,-
 0.00000066,0.00000077,0.00000093,0.00000045,-0.00000039,-0.00000025,-0
 .00000001,-0.00000044,-0.00000020,-0.00001278,-0.00001421,-0.00000204,
 0.00000273,-0.00000527,-0.00000843,-0.00000586,0.00000020,-0.00000449,
 -0.00000667,-0.00000338,-0.00000963,0.00002645,0.00001997,0.00009471,-
 0.00000316,0.00004483,-0.00002868,0.00000425,-0.00004037,-0.00004217,0
 .00000169,-0.00000912,-0.00000171,-0.00013912,-0.00005118,0.00020313,0
 .00003720,-0.00000823,-0.00001286,-0.00001623,0.00004486,-0.00002640,-
 0.00000132,0.00000758,-0.00001392,0.10794675,-0.08592421,-0.18259264,0
 .01443561,-0.01190517,-0.01857436,-0.11611500,0.09229153,0.19447429,-0
 .00017986,0.00041403,-0.00006287,0.00067429,-0.00137756,0.00010127,-0.
 00048432,-0.00038368,-0.00008308,0.00003133,-0.00005648,0.00001151,0.0
 0002141,-0.00002110,0.00000585,-0.00014344,0.00004122,-0.00002032,-0.0
 0000218,-0.00000626,-0.00000227,-0.00290711,-0.03423133,0.00119748,0.0
 0014970,-0.00010532,0.00003273,0.00114239,0.00009934,0.00029630,-0.000
 08962,0.00036737,-0.00003995,0.00016365,-0.00027441,0.00005408,-0.0069
 9968,-0.00047958,-0.00136638,-0.00123122,0.00086452,-0.00015361,0.0003
 8756,0.00022510,0.00008509,0.00053221,0.00051041,-0.00001230,-0.000002
 68,-0.00013887,0.00005744,-0.00001981,0.00000147,0.00002987,-0.0000074
 9,0.00001469,-0.00004593,-0.00002896,0.00000478,0.00000419,0.00000350,
 -0.00000192,-0.00000160,-0.00004256,0.00000849,-0.00001648,0.00000443,
 -0.00000265,0.00000058,0.00006821,-0.00001394,0.00002235,-0.00000769,0
 .00000114,-0.00000386,-0.00000785,0.00000048,-0.00000247,-0.00007968,0
 .00002289,-0.00000852,0.00000677,-0.00000245,-0.00001186,0.00000076,-0
 .00000744,0.00000471,-0.00000357,-0.00000159,0.00000368,0.00000052,0.0
 0000042,-0.00000022,0.00000040,-0.00000064,-0.00000011,-0.00000290,0.0
 0000043,0.00000380,0.00000146,-0.00000006,-0.00000099,0.00000064,-0.00
 000075,-0.00000102,0.00002374,-0.00000614,0.00001259,-0.00001052,0.000
 00047,-0.00000350,-0.00000610,0.00000892,-0.00000405,-0.00000516,-0.00
 000594,-0.00000331,0.00004793,0.00001247,-0.00000820,0.00000281,-0.000
 01630,0.00000629,0.00000043,-0.00001266,0.00000208,0.00000888,-0.00000
 283,0.00000260,0.00007337,0.00007737,0.00000183,-0.00002928,0.00000940
 ,-0.00001451,-0.00000886,0.00000775,-0.00000195,-0.00004067,0.00002300
 ,-0.00000599,-0.05319986,-0.03888217,-0.00046627,0.00076008,0.00954799
 ,0.00171983,0.00303425,0.01618765,-0.00242575,0.05840035,-0.00008236,0
 .00022010,-0.00002421,0.00051233,0.00008488,0.00009328,-0.00010585,-0.
 00031373,-0.00001749,0.00000878,-0.00008483,0.00000645,-0.00003991,-0.
 00001862,-0.00000794,-0.00005058,0.00010987,-0.00001224,-0.00000262,-0
 .00000360,-0.00000096,0.00136125,-0.00394009,0.00032368,-0.00014912,-0
 .00016497,0.00000885,0.00133599,0.00096395,0.00016142,-0.00036300,0.00
 006353,-0.00006829,-0.00003752,-0.00021760,0.00001596,-0.00093687,0.00
 096686,-0.00019958,0.00037318,0.00075212,-0.00002740,-0.00011850,-0.00
 034972,0.00009662,-0.00012071,-0.00040621,-0.00005709,0.00002192,-0.00
 004190,0.00002522,-0.00001324,0.00000281,0.00001390,0.00000230,0.00000
 490,-0.00002154,-0.00001131,0.00000152,0.00000117,0.00000203,0.0000002
 3,-0.00000005,-0.00002338,0.00000226,-0.00001177,0.00000251,0.00000031
 ,0.00000009,0.00003518,-0.00000748,0.00001425,-0.00000395,0.00000018,-
 0.00000227,-0.00000359,0.,-0.00000118,-0.00004120,0.00001193,-0.000004
 48,0.00000356,-0.00000119,-0.00000624,0.00000038,-0.00000383,0.0000024
 3,-0.00000197,-0.00000078,0.00000187,0.00000038,0.00000014,-0.00000012
 ,0.00000020,-0.00000031,-0.00000004,-0.00000197,0.00000008,0.00000198,
 0.00000092,0.,-0.00000048,0.00000057,-0.00000025,-0.00000058,0.0000162
 8,-0.00000375,0.00000691,-0.00000757,0.00000093,-0.00000118,-0.0000043
 4,0.00000450,-0.00000308,-0.00000398,-0.00000374,-0.00000186,0.0000289
 8,-0.00001049,-0.00000042,-0.00000519,0.00000310,0.00000817,-0.0000050
 3,0.00000224,-0.00000946,0.00000123,-0.00000548,0.00000139,0.00002387,
 -0.00000917,-0.00000628,-0.00002992,0.00001062,-0.00001388,-0.00002056
 ,0.00000904,-0.00000308,-0.00001240,0.00001076,0.00000101,-0.04509205,
 -0.32887038,0.00180513,-0.00162415,-0.00727856,-0.00165265,-0.00239925
 ,-0.00866120,0.00156686,0.04758025,0.34717099,-0.00006268,0.00005804,0
 .00000794,0.00002306,-0.00019224,0.00063413,-0.00001750,-0.00010259,-0
 .00021793,-0.00000330,0.00004745,0.00005044,0.00004920,0.00000319,-0.0
 0002228,-0.00004631,-0.00001621,-0.00002489,-0.00000086,-0.00000070,0.
 00000202,0.00025323,-0.00506955,-0.00315718,0.00004712,0.00003387,-0.0
 0001350,0.00017273,-0.00003878,-0.00052117,-0.00001848,0.00005769,0.00
 009812,0.00002613,-0.00003170,0.00011954,-0.00137877,-0.00008010,0.001
 96430,-0.00013338,-0.00007574,-0.00103707,0.00045643,0.00092864,0.0000
 6926,-0.00027038,-0.00064955,0.00014721,-0.00000757,-0.00001336,-0.000
 01534,-0.00002129,-0.00000275,0.00000466,0.00002791,0.00000898,-0.0000
 0331,-0.00000013,0.00000254,-0.00000307,-0.00000036,-0.00000014,-0.000
 00100,-0.00001224,-0.00000158,-0.00001315,0.00000203,0.00000191,0.0000
 0063,0.00001029,-0.00000819,0.00001556,-0.00000190,0.00000113,-0.00000
 073,-0.00000018,0.00000078,-0.00000011,-0.00001405,0.00000566,-0.00000
 383,0.00000128,-0.00000026,-0.00000161,0.00000007,-0.00000125,0.000001
 11,-0.00000081,-0.00000046,-0.00000039,0.00000010,0.00000011,0.0000003
 0,0.00000016,-0.00000005,0.00000026,-0.00000149,-0.00000047,-0.0000003
 3,0.00000070,0.00000036,0.00000054,0.00000078,0.00000004,0.00000020,0.
 00000149,-0.00000782,0.00001325,0.00000035,-0.00000300,-0.00000714,-0.
 00000219,0.00000846,-0.00000582,-0.00000080,-0.00000033,-0.00000580,0.
 00001522,0.00001099,0.00001400,-0.00000331,0.00000181,-0.00000270,0.00
 000557,-0.00001563,-0.00000083,0.00000189,-0.00000054,0.00000287,-0.00
 000063,0.00000248,0.00004084,0.00000104,-0.00000413,-0.00001453,0.0000
 0578,0.00001604,-0.00001065,-0.00000382,0.00000431,-0.00000283,-0.0003
 7199,0.00277687,-0.04446761,0.00555279,0.02483558,0.00274259,-0.005392
 15,-0.02048903,0.00146000,0.00111122,-0.00200078,0.04216503\\-0.000001
 04,0.00000083,-0.00000169,0.00000875,-0.00001208,0.00001032,-0.0000030
 0,0.00000422,0.00000286,0.00000279,0.00000145,-0.00000301,-0.00000496,
 -0.00000359,-0.00000383,0.00000828,0.00000685,-0.00000631,0.00000142,0
 .00000013,-0.00000373,0.00000203,-0.00000192,-0.00000512,-0.00000046,0
 .00001586,-0.00000997,-0.00000492,-0.00000056,0.00001925,0.00000150,0.
 00000095,0.00000381,-0.00000698,-0.00000306,0.00000439,-0.00000840,0.0
 0000600,-0.00000663,0.00001176,0.00000106,-0.00000359,-0.00000144,0.00
 000098,-0.00000603,-0.00000338,0.00000035,0.00000169,-0.00000256,-0.00
 000358,-0.00000174,0.00001400,-0.00000383,0.00000481,-0.00000396,-0.00
 000091,-0.00000233,-0.00001360,0.00000199,0.00000535,-0.00000280,0.000
 00336,-0.00000096,-0.00000129,-0.00000036,-0.00000328,-0.00000053,-0.0
 0000213,0.00000138,0.00001861,-0.00000490,-0.00000126,0.00000099,0.000
 00314,0.00000025,0.00001079,0.00000093,-0.00000016,-0.00000651,0.00000
 263,0.00000659,-0.00002068,-0.00000728,-0.00000761,0.00000050,-0.00000
 014,-0.00000288,0.00002434,-0.00000808,0.00000269,-0.00000619,-0.00000
 163,-0.00000855,0.00000171,0.00000410,0.00000963,-0.00000520,-0.000000
 66,0.00000429,-0.00000915,-0.00000383,0.00000616,0.00000133,-0.0000055
 3,0.00000470,0.00000070,-0.00000007,-0.00000245,0.00000094,0.00000115,
 -0.00000096,-0.00000073,0.00000126,-0.00000208,0.00000118,0.00000058,-
 0.00000251,-0.00000080,0.00000036,-0.00000115,0.00000134,0.00000155,-0
 .00000405,0.00000066,-0.00000017,-0.00000340,0.00000147,0.00000048,-0.
 00000514,0.00000038,-0.00000237,-0.00000440,-0.00000321,0.00000015,0.0
 0000530,0.00000085,-0.00000026,0.00000506,-0.00000110,0.00000065,0.000
 00312,-0.00000275,-0.00000058,0.00000088,0.00000026,0.00000330,0.00000
 115,-0.00000001,0.00000121,0.00000053,-0.00000093,0.00000197,0.0000006
 3\\\@


 The cat could very well be man's best friend
 but would never stoop to admitting it.
                               -- Doug Larson
 Job cpu time:       1 days 10 hours 45 minutes 38.5 seconds.
 Elapsed time:       0 days  0 hours 52 minutes 30.0 seconds.
 File lengths (MBytes):  RWF=   5222 Int=      0 D2E=      0 Chk=    107 Scr=      1
 Normal termination of Gaussian 16 at Thu Dec 25 00:59:32 2025.
