 Entering Gaussian System, Link 0=g16
 Initial command:
 /home/users/ntu/xiaogan4/Softwares/g16/l1.exe "/scratch/users/ntu/xiaogan4/g16scratch/Gau-3085116.inp" -scrdir="/scratch/users/ntu/xiaogan4/g16scratch/"
 Entering Link 1 = /home/users/ntu/xiaogan4/Softwares/g16/l1.exe PID=   3085117.
  
 Copyright (c) 1988,1990,1992,1993,1995,1998,2003,2009,2016,
            Gaussian, Inc.  All Rights Reserved.
  
 This is part of the Gaussian(R) 16 program.  It is based on
 the Gaussian(R) 09 system (copyright 2009, Gaussian, Inc.),
 the Gaussian(R) 03 system (copyright 2003, Gaussian, Inc.),
 the Gaussian(R) 98 system (copyright 1998, Gaussian, Inc.),
 the Gaussian(R) 94 system (copyright 1995, Gaussian, Inc.),
 the Gaussian 92(TM) system (copyright 1992, Gaussian, Inc.),
 the Gaussian 90(TM) system (copyright 1990, Gaussian, Inc.),
 the Gaussian 88(TM) system (copyright 1988, Gaussian, Inc.),
 the Gaussian 86(TM) system (copyright 1986, Carnegie Mellon
 University), and the Gaussian 82(TM) system (copyright 1983,
 Carnegie Mellon University). Gaussian is a federally registered
 trademark of Gaussian, Inc.
  
 This software contains proprietary and confidential information,
 including trade secrets, belonging to Gaussian, Inc.
  
 This software is provided under written license and may be
 used, copied, transmitted, or stored only in accord with that
 written license.
  
 The following legend is applicable only to US Government
 contracts under FAR:
  
                    RESTRICTED RIGHTS LEGEND
  
 Use, reproduction and disclosure by the US Government is
 subject to restrictions as set forth in subparagraphs (a)
 and (c) of the Commercial Computer Software - Restricted
 Rights clause in FAR 52.227-19.
  
 Gaussian, Inc.
 340 Quinnipiac St., Bldg. 40, Wallingford CT 06492
  
  
 ---------------------------------------------------------------
 Warning -- This program may not be used in any manner that
 competes with the business of Gaussian, Inc. or will provide
 assistance to any competitor of Gaussian, Inc.  The licensee
 of this program is prohibited from giving any competitor of
 Gaussian, Inc. access to this program.  By using this program,
 the user acknowledges that Gaussian, Inc. is engaged in the
 business of creating and licensing software in the field of
 computational chemistry and represents and warrants to the
 licensee that it is not a competitor of Gaussian, Inc. and that
 it will not use this program in any manner prohibited above.
 ---------------------------------------------------------------
  

 Cite this work as:
 Gaussian 16, Revision A.03,
 M. J. Frisch, G. W. Trucks, H. B. Schlegel, G. E. Scuseria, 
 M. A. Robb, J. R. Cheeseman, G. Scalmani, V. Barone, 
 G. A. Petersson, H. Nakatsuji, X. Li, M. Caricato, A. V. Marenich, 
 J. Bloino, B. G. Janesko, R. Gomperts, B. Mennucci, H. P. Hratchian, 
 J. V. Ortiz, A. F. Izmaylov, J. L. Sonnenberg, D. Williams-Young, 
 F. Ding, F. Lipparini, F. Egidi, J. Goings, B. Peng, A. Petrone, 
 T. Henderson, D. Ranasinghe, V. G. Zakrzewski, J. Gao, N. Rega, 
 G. Zheng, W. Liang, M. Hada, M. Ehara, K. Toyota, R. Fukuda, 
 J. Hasegawa, M. Ishida, T. Nakajima, Y. Honda, O. Kitao, H. Nakai, 
 T. Vreven, K. Throssell, J. A. Montgomery, Jr., J. E. Peralta, 
 F. Ogliaro, M. J. Bearpark, J. J. Heyd, E. N. Brothers, K. N. Kudin, 
 V. N. Staroverov, T. A. Keith, R. Kobayashi, J. Normand, 
 K. Raghavachari, A. P. Rendell, J. C. Burant, S. S. Iyengar, 
 J. Tomasi, M. Cossi, J. M. Millam, M. Klene, C. Adamo, R. Cammi, 
 J. W. Ochterski, R. L. Martin, K. Morokuma, O. Farkas, 
 J. B. Foresman, and D. J. Fox, Gaussian, Inc., Wallingford CT, 2016.
 
 ******************************************
 Gaussian 16:  ES64L-G16RevA.03 25-Dec-2016
                26-Dec-2025 
 ******************************************
 %nprocshared=64
 Will use up to   64 processors via shared memory.
 %mem=128GB
 %oldchk=04BDP-NH2_m062x_def2SVP_dmso.chk
 %chk=06BDP-NH2_m062x_def2SVP_dmso.chk
 Copying data from "04BDP-NH2_m062x_def2SVP_dmso.chk" to current chk file "06BDP-NH2_m062x_def2SVP_dmso.chk"
 IOpt=  2 FromEx=T IUOpen= 4 IOptOp= 5 NList=   0 IFRang= 0 IUIn= 4 IUOut= 2.
 ----------------------------------------------------------------------
 # m062x/def2SVP TD=(NStates=5, Root=1) SCRF=(SMD, solvent=Ethanol, Cor
 rectedLR) geom=check guess=read
 ----------------------------------------------------------------------
 1/29=2,30=1,38=1,172=1/1;
 2/12=2,40=1/2;
 3/5=43,7=101,11=9,14=-4,25=1,30=1,70=32201,71=1,72=4,74=-55,116=-2/1,2,3,8;
 4/5=1/1;
 5/5=2,38=6,53=4/2;
 8/6=1,10=1,107=1,108=5/1;
 9/8=1,15=1,41=5,42=1,70=2,73=21/14;
 10/5=4,13=10,28=1,74=10/2;
 6/7=2,8=2,9=2,10=2,22=-1/1;
 99/5=1,9=1/99;
 --------------------------
 Step6 ES cLR m062x/def2SVP
 --------------------------
 Structure from the checkpoint file:  "06BDP-NH2_m062x_def2SVP_dmso.chk"
 Charge =  0 Multiplicity = 1
 Redundant internal coordinates found in file.  (old form).
 C,0,0.3860763525,1.2109004421,0.0479760951
 C,0,0.3957974485,-1.2266451649,-0.0509288961
 C,0,-0.3358941608,-0.0108870757,0.0018545235
 C,0,-0.0758565664,2.5846138868,0.059156549
 C,0,1.0698789454,3.3676649056,0.0980332151
 C,0,2.2007081803,2.5150508071,0.0992061314
 H,0,1.1132901961,4.4557914161,0.1127990829
 C,0,2.2202152907,-2.5160990756,-0.1204833045
 C,0,-0.0551610853,-2.6039341972,-0.0568062377
 C,0,1.0964106383,-3.3778013291,-0.1069665034
 H,0,1.1484355281,-4.4655486349,-0.1213950428
 N,0,1.7785082013,1.2301373118,0.0662026932
 N,0,1.7880054765,-1.2345925815,-0.0836687474
 B,0,2.706578633,0.0017261806,-0.016603973
 F,0,3.5141801078,0.0755538208,-1.1573299011
 F,0,3.5345517049,-0.0647435604,1.1097613957
 C,0,-1.8196741157,-0.0172755801,0.0036931029
 C,0,-2.5433841309,0.2492393814,1.1738084057
 C,0,-2.5414716898,-0.2872229007,-1.1668420865
 C,0,-3.9335016985,0.2435948258,1.1809757801
 H,0,-2.0047410443,0.463660583,2.1004098655
 C,0,-3.9314902993,-0.2905843199,-1.1742214227
 H,0,-2.0012703202,-0.4926847461,-2.0945703165
 C,0,-4.658415973,-0.0275508488,0.0036378436
 H,0,-4.47772097,0.4502704247,2.1053701305
 H,0,-4.4742748654,-0.4978270193,-2.0993391239
 N,0,-6.0332059914,-0.0817120319,0.0140651382
 H,0,-6.4971826763,0.0245158827,-0.8817076146
 H,0,-6.499709818,0.3995833017,0.775443371
 C,0,-1.4805261406,3.0922198512,0.0197730739
 H,0,-2.0720307371,2.6095418759,-0.7724409489
 H,0,-2.0123402421,2.9101795817,0.9671427914
 H,0,-1.4734482931,4.1759749125,-0.1601361998
 C,0,3.6355836254,2.8853035234,0.1184831612
 H,0,4.1446075374,2.4253037,0.9811459677
 H,0,4.1458084738,2.509153584,-0.783662363
 H,0,3.7491940646,3.9742106617,0.1690053542
 C,0,-1.4553357592,-3.1223519359,-0.0018709774
 H,0,-2.0420869765,-2.6426493657,0.7956634374
 H,0,-1.9986364848,-2.9459329288,-0.943775496
 H,0,-1.4381209439,-4.2056812861,0.1798790273
 C,0,3.6578097663,-2.8746581566,-0.1546275831
 H,0,4.1554638063,-2.405305535,-1.0188522642
 H,0,4.1730547439,-2.5001699384,0.7453739351
 H,0,3.7796002615,-3.962306648,-0.2127950688
 Recover connectivity data from disk.
                           ----------------------------
                           !    Current Parameters    !
                           ! (Angstroms and Degrees)  !
 --------------------------                            --------------------------
 ! Name  Definition              Value                                          !
 --------------------------------------------------------------------------------
 ! R1    R(1,3)                  1.4199                                         !
 ! R2    R(1,4)                  1.4493                                         !
 ! R3    R(1,12)                 1.3927                                         !
 ! R4    R(2,3)                  1.4199                                         !
 ! R5    R(2,9)                  1.4492                                         !
 ! R6    R(2,13)                 1.3926                                         !
 ! R7    R(3,17)                 1.4838                                         !
 ! R8    R(4,5)                  1.3883                                         !
 ! R9    R(4,30)                 1.4941                                         !
 ! R10   R(5,6)                  1.4162                                         !
 ! R11   R(5,7)                  1.0891                                         !
 ! R12   R(6,12)                 1.3529                                         !
 ! R13   R(6,34)                 1.482                                          !
 ! R14   R(8,10)                 1.4162                                         !
 ! R15   R(8,13)                 1.3529                                         !
 ! R16   R(8,42)                 1.482                                          !
 ! R17   R(9,10)                 1.3883                                         !
 ! R18   R(9,38)                 1.4941                                         !
 ! R19   R(10,11)                1.0891                                         !
 ! R20   R(12,14)                1.5418                                         !
 ! R21   R(13,14)                1.5417                                         !
 ! R22   R(14,15)                1.3996                                         !
 ! R23   R(14,16)                1.3995                                         !
 ! R24   R(17,18)                1.4014                                         !
 ! R25   R(17,19)                1.4014                                         !
 ! R26   R(18,20)                1.3901                                         !
 ! R27   R(18,21)                1.093                                          !
 ! R28   R(19,22)                1.39                                           !
 ! R29   R(19,23)                1.093                                          !
 ! R30   R(20,24)                1.409                                          !
 ! R31   R(20,25)                1.0924                                         !
 ! R32   R(22,24)                1.4089                                         !
 ! R33   R(22,26)                1.0924                                         !
 ! R34   R(24,27)                1.3759                                         !
 ! R35   R(27,28)                1.0144                                         !
 ! R36   R(27,29)                1.0144                                         !
 ! R37   R(30,31)                1.1002                                         !
 ! R38   R(30,32)                1.1016                                         !
 ! R39   R(30,33)                1.0986                                         !
 ! R40   R(34,35)                1.1022                                         !
 ! R41   R(34,36)                1.1026                                         !
 ! R42   R(34,37)                1.096                                          !
 ! R43   R(38,39)                1.1002                                         !
 ! R44   R(38,40)                1.1016                                         !
 ! R45   R(38,41)                1.0986                                         !
 ! R46   R(42,43)                1.1022                                         !
 ! R47   R(42,44)                1.1026                                         !
 ! R48   R(42,45)                1.096                                          !
 ! A1    A(3,1,4)              130.8259                                         !
 ! A2    A(3,1,12)             121.378                                          !
 ! A3    A(4,1,12)             107.7863                                         !
 ! A4    A(3,2,9)              130.8059                                         !
 ! A5    A(3,2,13)             121.3931                                         !
 ! A6    A(9,2,13)             107.7917                                         !
 ! A7    A(1,3,2)              118.4203                                         !
 ! A8    A(1,3,17)             120.8053                                         !
 ! A9    A(2,3,17)             120.774                                          !
 ! A10   A(1,4,5)              105.7706                                         !
 ! A11   A(1,4,30)             128.4224                                         !
 ! A12   A(5,4,30)             125.8027                                         !
 ! A13   A(4,5,6)              108.6279                                         !
 ! A14   A(4,5,7)              126.6417                                         !
 ! A15   A(6,5,7)              124.7262                                         !
 ! A16   A(5,6,12)             108.8186                                         !
 ! A17   A(5,6,34)             128.5127                                         !
 ! A18   A(12,6,34)            122.6661                                         !
 ! A19   A(10,8,13)            108.8186                                         !
 ! A20   A(10,8,42)            128.5172                                         !
 ! A21   A(13,8,42)            122.6616                                         !
 ! A22   A(2,9,10)             105.7698                                         !
 ! A23   A(2,9,38)             128.4049                                         !
 ! A24   A(10,9,38)            125.8203                                         !
 ! A25   A(8,10,9)             108.6259                                         !
 ! A26   A(8,10,11)            124.7276                                         !
 ! A27   A(9,10,11)            126.6424                                         !
 ! A28   A(1,12,6)             108.9929                                         !
 ! A29   A(1,12,14)            126.1655                                         !
 ! A30   A(6,12,14)            124.7614                                         !
 ! A31   A(2,13,8)             108.9906                                         !
 ! A32   A(2,13,14)            126.1609                                         !
 ! A33   A(8,13,14)            124.7807                                         !
 ! A34   A(12,14,13)           106.4162                                         !
 ! A35   A(12,14,15)           110.4307                                         !
 ! A36   A(12,14,16)           110.5319                                         !
 ! A37   A(13,14,15)           110.527                                          !
 ! A38   A(13,14,16)           110.452                                          !
 ! A39   A(15,14,16)           108.4869                                         !
 ! A40   A(3,17,18)            121.1062                                         !
 ! A41   A(3,17,19)            120.9862                                         !
 ! A42   A(18,17,19)           117.9075                                         !
 ! A43   A(17,18,20)           121.328                                          !
 ! A44   A(17,18,21)           119.3828                                         !
 ! A45   A(20,18,21)           119.289                                          !
 ! A46   A(17,19,22)           121.3278                                         !
 ! A47   A(17,19,23)           119.3792                                         !
 ! A48   A(22,19,23)           119.2917                                         !
 ! A49   A(18,20,24)           120.7283                                         !
 ! A50   A(18,20,25)           120.1164                                         !
 ! A51   A(24,20,25)           119.1552                                         !
 ! A52   A(19,22,24)           120.7344                                         !
 ! A53   A(19,22,26)           120.1195                                         !
 ! A54   A(24,22,26)           119.1461                                         !
 ! A55   A(20,24,22)           117.973                                          !
 ! A56   A(20,24,27)           121.0199                                         !
 ! A57   A(22,24,27)           120.966                                          !
 ! A58   A(24,27,28)           116.5012                                         !
 ! A59   A(24,27,29)           116.5214                                         !
 ! A60   A(28,27,29)           113.7521                                         !
 ! A61   A(4,30,31)            112.0479                                         !
 ! A62   A(4,30,32)            112.0285                                         !
 ! A63   A(4,30,33)            109.4758                                         !
 ! A64   A(31,30,32)           106.6907                                         !
 ! A65   A(31,30,33)           108.5619                                         !
 ! A66   A(32,30,33)           107.8765                                         !
 ! A67   A(6,34,35)            110.6738                                         !
 ! A68   A(6,34,36)            110.6198                                         !
 ! A69   A(6,34,37)            110.4374                                         !
 ! A70   A(35,34,36)           106.5168                                         !
 ! A71   A(35,34,37)           109.3109                                         !
 ! A72   A(36,34,37)           109.1899                                         !
 ! A73   A(9,38,39)            112.034                                          !
 ! A74   A(9,38,40)            112.0363                                         !
 ! A75   A(9,38,41)            109.4847                                         !
 ! A76   A(39,38,40)           106.6762                                         !
 ! A77   A(39,38,41)           108.5651                                         !
 ! A78   A(40,38,41)           107.8851                                         !
 ! A79   A(8,42,43)            110.6717                                         !
 ! A80   A(8,42,44)            110.6288                                         !
 ! A81   A(8,42,45)            110.433                                          !
 ! A82   A(43,42,44)           106.5229                                         !
 ! A83   A(43,42,45)           109.3176                                         !
 ! A84   A(44,42,45)           109.1747                                         !
 ! D1    D(4,1,3,2)            177.5601                                         !
 ! D2    D(4,1,3,17)            -2.2175                                         !
 ! D3    D(12,1,3,2)            -1.1586                                         !
 ! D4    D(12,1,3,17)          179.0638                                         !
 ! D5    D(3,1,4,5)           -179.4645                                         !
 ! D6    D(3,1,4,30)            -0.2009                                         !
 ! D7    D(12,1,4,5)            -0.6133                                         !
 ! D8    D(12,1,4,30)          178.6504                                         !
 ! D9    D(3,1,12,6)           179.4973                                         !
 ! D10   D(3,1,12,14)            2.6414                                         !
 ! D11   D(4,1,12,6)             0.5155                                         !
 ! D12   D(4,1,12,14)         -176.3404                                         !
 ! D13   D(9,2,3,1)            177.5027                                         !
 ! D14   D(9,2,3,17)            -2.7197                                         !
 ! D15   D(13,2,3,1)            -1.2427                                         !
 ! D16   D(13,2,3,17)          178.5349                                         !
 ! D17   D(3,2,9,10)          -179.4718                                         !
 ! D18   D(3,2,9,38)            -0.2596                                         !
 ! D19   D(13,2,9,10)           -0.5965                                         !
 ! D20   D(13,2,9,38)          178.6156                                         !
 ! D21   D(3,2,13,8)           179.5118                                         !
 ! D22   D(3,2,13,14)            2.4023                                         !
 ! D23   D(9,2,13,8)             0.5092                                         !
 ! D24   D(9,2,13,14)         -176.6003                                         !
 ! D25   D(1,3,17,18)          -74.8046                                         !
 ! D26   D(1,3,17,19)          105.042                                          !
 ! D27   D(2,3,17,18)          105.4231                                         !
 ! D28   D(2,3,17,19)          -74.7303                                         !
 ! D29   D(1,4,5,6)              0.4848                                         !
 ! D30   D(1,4,5,7)            179.7685                                         !
 ! D31   D(30,4,5,6)          -178.8039                                         !
 ! D32   D(30,4,5,7)             0.4798                                         !
 ! D33   D(1,4,30,31)          -48.2741                                         !
 ! D34   D(1,4,30,32)           71.6024                                         !
 ! D35   D(1,4,30,33)         -168.7725                                         !
 ! D36   D(5,4,30,31)          130.8521                                         !
 ! D37   D(5,4,30,32)         -109.2714                                         !
 ! D38   D(5,4,30,33)           10.3537                                         !
 ! D39   D(4,5,6,12)            -0.1844                                         !
 ! D40   D(4,5,6,34)           179.2373                                         !
 ! D41   D(7,5,6,12)          -179.4851                                         !
 ! D42   D(7,5,6,34)            -0.0634                                         !
 ! D43   D(5,6,12,1)            -0.2146                                         !
 ! D44   D(5,6,12,14)          176.6958                                         !
 ! D45   D(34,6,12,1)         -179.6771                                         !
 ! D46   D(34,6,12,14)          -2.7667                                         !
 ! D47   D(5,6,34,35)          123.195                                          !
 ! D48   D(5,6,34,36)         -118.9882                                         !
 ! D49   D(5,6,34,37)            2.0095                                         !
 ! D50   D(12,6,34,35)         -57.4552                                         !
 ! D51   D(12,6,34,36)          60.3616                                         !
 ! D52   D(12,6,34,37)        -178.6407                                         !
 ! D53   D(13,8,10,9)           -0.1668                                         !
 ! D54   D(13,8,10,11)        -179.4689                                         !
 ! D55   D(42,8,10,9)          179.2513                                         !
 ! D56   D(42,8,10,11)          -0.0508                                         !
 ! D57   D(10,8,13,2)           -0.2212                                         !
 ! D58   D(10,8,13,14)         176.9376                                         !
 ! D59   D(42,8,13,2)         -179.6804                                         !
 ! D60   D(42,8,13,14)          -2.5216                                         !
 ! D61   D(10,8,42,43)         123.593                                          !
 ! D62   D(10,8,42,44)        -118.5784                                         !
 ! D63   D(10,8,42,45)           2.4032                                         !
 ! D64   D(13,8,42,43)         -57.0613                                         !
 ! D65   D(13,8,42,44)          60.7674                                         !
 ! D66   D(13,8,42,45)        -178.251                                          !
 ! D67   D(2,9,10,8)             0.4641                                         !
 ! D68   D(2,9,10,11)          179.7493                                         !
 ! D69   D(38,9,10,8)         -178.7745                                         !
 ! D70   D(38,9,10,11)           0.5107                                         !
 ! D71   D(2,9,38,39)          -48.1752                                         !
 ! D72   D(2,9,38,40)           71.6786                                         !
 ! D73   D(2,9,38,41)         -168.6746                                         !
 ! D74   D(10,9,38,39)         130.8897                                         !
 ! D75   D(10,9,38,40)        -109.2565                                         !
 ! D76   D(10,9,38,41)          10.3903                                         !
 ! D77   D(1,12,14,13)          -1.49                                           !
 ! D78   D(1,12,14,15)         118.4994                                         !
 ! D79   D(1,12,14,16)        -121.4453                                         !
 ! D80   D(6,12,14,13)        -177.8706                                         !
 ! D81   D(6,12,14,15)         -57.8813                                         !
 ! D82   D(6,12,14,16)          62.1741                                         !
 ! D83   D(2,13,14,12)          -1.0187                                         !
 ! D84   D(2,13,14,15)        -120.9456                                         !
 ! D85   D(2,13,14,16)         118.9884                                         !
 ! D86   D(8,13,14,12)        -177.6905                                         !
 ! D87   D(8,13,14,15)          62.3825                                         !
 ! D88   D(8,13,14,16)         -57.6835                                         !
 ! D89   D(3,17,18,20)        -179.957                                          !
 ! D90   D(3,17,18,21)          -0.1016                                         !
 ! D91   D(19,17,18,20)          0.1918                                         !
 ! D92   D(19,17,18,21)       -179.9528                                         !
 ! D93   D(3,17,19,22)        -179.779                                          !
 ! D94   D(3,17,19,23)          -0.1986                                         !
 ! D95   D(18,17,19,22)          0.0723                                         !
 ! D96   D(18,17,19,23)        179.6527                                         !
 ! D97   D(17,18,20,24)         -0.2141                                         !
 ! D98   D(17,18,20,25)        179.7627                                         !
 ! D99   D(21,18,20,24)        179.9304                                         !
 ! D100  D(21,18,20,25)         -0.0928                                         !
 ! D101  D(17,19,22,24)         -0.3164                                         !
 ! D102  D(17,19,22,26)        179.6411                                         !
 ! D103  D(23,19,22,24)       -179.8972                                         !
 ! D104  D(23,19,22,26)          0.0603                                         !
 ! D105  D(18,20,24,22)         -0.0285                                         !
 ! D106  D(18,20,24,27)        177.6615                                         !
 ! D107  D(25,20,24,22)        179.9944                                         !
 ! D108  D(25,20,24,27)         -2.3155                                         !
 ! D109  D(19,22,24,20)          0.2896                                         !
 ! D110  D(19,22,24,27)       -177.4018                                         !
 ! D111  D(26,22,24,20)       -179.6683                                         !
 ! D112  D(26,22,24,27)          2.6403                                         !
 ! D113  D(20,24,27,28)        160.5421                                         !
 ! D114  D(20,24,27,29)         21.7927                                         !
 ! D115  D(22,24,27,28)        -21.8371                                         !
 ! D116  D(22,24,27,29)       -160.5865                                         !
 --------------------------------------------------------------------------------
                          Input orientation:                          
 ---------------------------------------------------------------------
 Center     Atomic      Atomic             Coordinates (Angstroms)
 Number     Number       Type             X           Y           Z
 ---------------------------------------------------------------------
      1          6           0        0.386076    1.210900    0.047976
      2          6           0        0.395797   -1.226645   -0.050929
      3          6           0       -0.335894   -0.010887    0.001855
      4          6           0       -0.075857    2.584614    0.059157
      5          6           0        1.069879    3.367665    0.098033
      6          6           0        2.200708    2.515051    0.099206
      7          1           0        1.113290    4.455791    0.112799
      8          6           0        2.220215   -2.516099   -0.120483
      9          6           0       -0.055161   -2.603934   -0.056806
     10          6           0        1.096411   -3.377801   -0.106967
     11          1           0        1.148436   -4.465549   -0.121395
     12          7           0        1.778508    1.230137    0.066203
     13          7           0        1.788005   -1.234593   -0.083669
     14          5           0        2.706579    0.001726   -0.016604
     15          9           0        3.514180    0.075554   -1.157330
     16          9           0        3.534552   -0.064744    1.109761
     17          6           0       -1.819674   -0.017276    0.003693
     18          6           0       -2.543384    0.249239    1.173808
     19          6           0       -2.541472   -0.287223   -1.166842
     20          6           0       -3.933502    0.243595    1.180976
     21          1           0       -2.004741    0.463661    2.100410
     22          6           0       -3.931490   -0.290584   -1.174221
     23          1           0       -2.001270   -0.492685   -2.094570
     24          6           0       -4.658416   -0.027551    0.003638
     25          1           0       -4.477721    0.450270    2.105370
     26          1           0       -4.474275   -0.497827   -2.099339
     27          7           0       -6.033206   -0.081712    0.014065
     28          1           0       -6.497183    0.024516   -0.881708
     29          1           0       -6.499710    0.399583    0.775443
     30          6           0       -1.480526    3.092220    0.019773
     31          1           0       -2.072031    2.609542   -0.772441
     32          1           0       -2.012340    2.910180    0.967143
     33          1           0       -1.473448    4.175975   -0.160136
     34          6           0        3.635584    2.885304    0.118483
     35          1           0        4.144608    2.425304    0.981146
     36          1           0        4.145808    2.509154   -0.783662
     37          1           0        3.749194    3.974211    0.169005
     38          6           0       -1.455336   -3.122352   -0.001871
     39          1           0       -2.042087   -2.642649    0.795663
     40          1           0       -1.998636   -2.945933   -0.943775
     41          1           0       -1.438121   -4.205681    0.179879
     42          6           0        3.657810   -2.874658   -0.154628
     43          1           0        4.155464   -2.405306   -1.018852
     44          1           0        4.173055   -2.500170    0.745374
     45          1           0        3.779600   -3.962307   -0.212795
 ---------------------------------------------------------------------
                    Distance matrix (angstroms):
                    1          2          3          4          5
     1  C    0.000000
     2  C    2.439571   0.000000
     3  C    1.419906   1.419939   0.000000
     4  C    1.449343   3.841910   2.609124   0.000000
     5  C    2.263123   4.645886   3.660609   1.388305   0.000000
     6  C    2.235245   4.156986   3.581088   2.277979   1.416237
     7  H    3.326013   5.729894   4.697197   2.217713   1.089092
     8  C    4.157279   2.235180   3.581166   5.596560   5.999142
     9  C    3.841697   1.449249   2.608859   5.189885   6.078625
    10  C    4.645941   2.263067   3.660526   6.078832   6.748633
    11  H    5.729917   3.325947   4.697067   7.157952   7.836680
    12  N    1.392684   2.821593   2.452546   2.296372   2.252153
    13  N    2.821909   1.392616   2.452696   4.252143   4.661491
    14  B    2.617442   2.617209   3.042555   3.797235   3.744525
    15  F    3.539323   3.555862   4.021723   4.545722   4.288186
    16  F    3.559151   3.542456   4.026253   4.599773   4.345070
    17  C    2.525017   2.524653   1.483795   3.132699   4.451543
    18  C    3.282382   3.509559   2.512798   3.575628   4.892601
    19  C    3.505809   3.279531   2.511331   3.978665   5.291500
    20  C    4.569258   4.735190   3.794452   4.649761   5.997199
    21  H    3.238342   3.639777   2.722899   3.519340   4.679321
    22  C    4.731766   4.567649   3.793375   4.965269   6.325750
    23  H    3.632097   3.234363   2.720405   4.220844   5.398312
    24  C    5.194481   5.194793   4.322554   5.275068   6.659562
    25  H    5.335537   5.586846   4.668209   5.302718   6.581524
    26  H    5.581552   5.333363   4.666725   5.788491   7.106906
    27  N    6.548220   6.530481   5.697765   6.526970   7.896776
    28  H    7.046352   7.054699   6.224421   6.976586   8.330484
    29  H    6.971477   7.132709   6.225717   6.822999   8.158864
    30  C    2.650351   4.709372   3.307533   1.494092   2.566430
    31  H    2.944753   4.618126   3.237337   2.162611   3.347248
    32  H    3.079743   4.893763   3.503553   2.163423   3.234922
    33  H    3.506110   5.717894   4.341668   2.129268   2.681143
    34  C    3.656213   5.237656   4.916722   3.724073   2.610734
    35  H    4.058588   5.334368   5.193162   4.322934   3.334950
    36  H    4.063578   5.343751   5.201279   4.305635   3.312970
    37  H    4.354434   6.192135   5.709369   4.071125   2.748029
    38  C    4.708541   2.650058   3.306717   5.871639   6.964697
    39  H    4.615719   2.943649   3.235336   5.633186   6.804035
    40  H    4.893842   3.080006   3.503344   5.940531   7.096666
    41  H    5.717032   3.505879   4.340840   6.926648   7.978241
    42  C    5.238041   3.656149   4.916843   6.617373   6.762235
    43  H    5.331355   4.057241   5.191086   6.630646   6.640441
    44  H    5.347861   4.064928   5.203842   6.661769   6.669350
    45  H    6.192421   4.354327   5.709386   7.602675   7.820977
                    6          7          8          9         10
     6  C    0.000000
     7  H    2.224666   0.000000
     8  C    5.035982   7.063070   0.000000
     9  C    5.596186   7.157777   2.277961   0.000000
    10  C    5.998974   7.836693   1.416210   1.388346   0.000000
    11  H    7.062911   8.924483   2.224650   2.217752   1.089086
    12  N    1.352902   3.293863   3.776803   4.251774   4.661367
    13  N    3.776717   5.733612   1.352930   2.296319   2.252152
    14  B    2.566343   4.732231   2.566473   3.797142   3.744598
    15  F    3.042242   5.154026   3.076696   4.596847   4.344483
    16  F    3.075012   5.224144   3.041402   4.549111   4.289675
    17  C    4.752397   5.350001   4.751868   3.131768   4.450722
    18  C    5.366105   5.673807   5.658106   3.980737   5.295651
    19  C    5.651892   6.122985   5.360636   3.575062   4.889703
    20  C    6.630103   6.659858   6.868620   4.968103   6.330349
    21  H    5.089088   5.441491   5.626863   4.226651   5.408002
    22  C    6.862730   7.045163   6.626218   4.650391   5.995809
    23  H    5.613889   6.249831   5.080567   3.520965   4.676547
    24  C    7.315842   7.309232   7.315999   5.275544   6.659913
    25  H    7.272512   7.160583   7.656117   5.793290   7.114739
    26  H    7.646335   7.787989   7.266739   5.304356   6.579995
    27  N    8.634105   8.465878   8.606004   6.488732   7.855590
    28  H    9.100454   8.862536   9.111927   7.006344   8.356952
    29  H    8.979408   8.651572   9.238018   7.158629   8.529263
    30  C    3.727052   2.931870   6.720744   5.872282   6.965475
    31  H    4.361765   3.786629   6.717188   5.635621   6.806626
    32  H    4.319632   3.590040   6.967206   5.940073   7.096249
    33  H    4.040464   2.616105   7.643859   6.927437   7.979131
    34  C    1.482001   2.971267   5.588875   6.616952   6.762005
    35  H    2.136496   3.750439   5.416118   6.633900   6.644661
    36  H    2.136096   3.713382   5.422258   6.657337   6.664307
    37  H    2.128809   2.680125   6.674257   7.602375   7.820838
    38  C    6.719909   8.002452   3.727102   1.494076   2.566653
    39  H    6.714777   7.798113   4.361486   2.162424   3.347440
    40  H    6.967399   8.098516   4.319870   2.163510   3.235132
    41  H    7.643025   9.029690   4.040833   2.129364   2.681700
    42  C    5.588966   7.764122   1.482028   3.724112   2.610783
    43  H    5.411195   7.590132   2.136476   4.323696   3.336928
    44  H    5.427718   7.625464   2.136245   4.304889   3.310961
    45  H    6.674309   8.836266   2.128784   4.071229   2.748154
                   11         12         13         14         15
    11  H    0.000000
    12  N    5.733500   0.000000
    13  N    3.293866   2.469301   0.000000
    14  B    4.732371   1.541806   1.541674   0.000000
    15  F    5.224129   2.417158   2.418452   1.399616   0.000000
    16  F    5.155229   2.418557   2.417281   1.399520   2.271520
    17  C    5.349061   3.808788   3.808523   4.526338   5.459541
    18  C    6.126688   4.568118   4.748046   5.388920   6.492954
    19  C    5.671577   4.741836   4.562362   5.380388   6.066516
    20  C    7.049701   5.902800   6.043179   6.751545   7.807937
    21  H    6.259077   4.363308   4.694592   5.185717   6.420435
    22  C    6.659160   6.037825   5.898567   6.744589   7.454686
    23  H    5.440378   4.682284   4.353477   5.169742   5.623300
    24  C    7.309650   6.558939   6.559034   7.365081   8.255289
    25  H    7.795986   6.626221   6.847626   7.504540   8.640377
    26  H    7.160304   6.839059   6.619812   7.493464   8.064215
    27  N    8.415007   7.921272   7.906329   8.740237   9.620264
    28  H    8.899114   8.416598   8.418228   9.244358  10.015286
    29  H    9.108675   8.349954   8.490867   9.248858  10.203852
    30  C    8.003201   3.753773   5.423588   5.204260   5.952557
    31  H    7.800780   4.175252   5.491052   5.496099   6.146136
    32  H    8.097949   4.243202   5.720662   5.629836   6.564367
    33  H    9.030598   4.393678   6.318004   5.909110   6.533321
    34  C    7.763921   2.488180   4.519729   3.032543   3.088225
    35  H    7.594504   2.804277   4.481322   2.989508   3.239111
    36  H    7.620322   2.821748   4.479382   2.991146   2.541848
    37  H    8.836165   3.379957   5.571511   4.111220   4.124794
    38  C    2.932250   5.422780   3.753610   5.204000   6.021443
    39  H    3.787267   5.488856   4.174381   5.495664   6.486518
    40  H    3.590209   5.720703   4.243480   5.629155   6.290162
    41  H    2.616978   6.317258   4.393713   5.909265   6.681496
    42  C    2.971363   4.519943   2.488176   3.032734   3.119261
    43  H    3.753965   4.477020   2.801784   2.982880   2.566142
    44  H    3.709761   4.484453   2.824439   2.998441   3.269365
    45  H    2.680417   5.571686   3.379874   4.111377   4.155347
                   16         17         18         19         20
    16  F    0.000000
    17  C    5.467483   0.000000
    18  C    6.086378   1.401412   0.000000
    19  C    6.492340   1.401434   2.401341   0.000000
    20  C    7.474755   2.433581   1.390148   2.780605   0.000000
    21  H    5.651934   2.159113   1.093025   3.395120   2.148000
    22  C    7.810849   2.433505   2.780556   1.390042   2.415017
    23  H    6.410632   2.159097   3.395090   1.093029   3.873607
    24  C    8.267382   2.838760   2.432955   2.432880   1.408952
    25  H    8.090302   3.420652   2.156358   3.873026   1.092426
    26  H    8.638703   3.420611   3.872976   2.156301   3.406260
    27  N    9.630308   4.214037   3.692342   3.691746   2.424100
    28  H   10.227884   4.760753   4.461857   3.978207   3.297744
    29  H   10.050561   4.761523   3.979172   4.462267   2.602732
    30  C    6.025404   3.127977   3.247153   3.735545   3.934482
    31  H    6.490628   2.750680   3.095333   2.960941   3.588679
    32  H    6.295913   3.087936   2.721272   3.880368   3.293518
    33  H    6.684040   4.210708   4.282922   4.698326   4.828463
    34  C    3.113779   6.180451   6.800161   7.062082   8.086938
    35  H    2.566914   6.518762   7.035738   7.528301   8.369924
    36  H    3.253250   6.526083   7.326950   7.258530   8.617877
    37  H    4.152619   6.853582   7.381164   7.714712   8.600314
    38  C    5.956817   3.126383   3.732787   3.251893   4.343965
    39  H    6.151679   2.751231   2.959276   3.106259   3.472221
    40  H    6.567681   3.083303   3.871697   2.722713   4.293176
    41  H    6.537547   4.209438   4.696362   4.287815   5.198575
    42  C    3.083746   6.180011   7.069532   6.793415   8.314767
    43  H    3.224090   6.515409   7.531861   7.025462   8.791318
    44  H    2.543967   6.528986   7.270032   7.323836   8.569379
    45  H    4.123130   6.852883   7.722689   7.373764   8.895175
                   21         22         23         24         25
    21  H    0.000000
    22  C    3.873559   0.000000
    23  H    4.302612   2.147938   0.000000
    24  C    3.417562   1.408886   3.417492   0.000000
    25  H    2.473021   3.406311   4.966032   2.162925   0.000000
    26  H    4.965979   1.092432   2.473014   2.162771   4.310276
    27  N    4.569332   2.423399   4.568561   1.375896   2.660093
    28  H    5.409982   2.601467   4.685271   2.041473   3.630720
    29  H    4.686618   3.297465   5.410090   2.041688   2.420684
    30  C    3.393107   4.344676   4.194421   4.453337   4.506971
    31  H    3.586448   3.468393   3.372958   3.774380   4.328001
    32  H    2.696258   4.302728   4.577521   4.069437   3.663989
    33  H    4.378769   5.198124   5.081045   5.276407   5.295191
    34  C    6.450244   8.307705   6.934157   8.791379   8.700737
    35  H    6.550976   8.788914   7.466358   9.190497   8.916792
    36  H    7.094447   8.557676   6.965349   9.196145   9.324740
    37  H    7.011566   8.887387   7.625272   9.312859   9.156953
    38  C    4.192960   3.940134   3.404788   4.453936   5.132145
    39  H    3.369409   3.603124   3.602425   3.783018   4.148951
    40  H    4.570824   3.292401   2.709753   4.060662   5.193972
    41  H    5.080576   4.835128   4.390513   5.278081   5.884265
    42  C    6.949392   8.081738   6.439127   8.791512   9.074668
    43  H    7.477225   8.360324   6.536105   9.186059   9.614934
    44  H    6.984667   8.616888   7.086436   9.201027   9.240704
    45  H    7.641905   8.594580   6.999844   9.312855   9.645107
                   26         27         28         29         30
    26  H    0.000000
    27  N    2.658928   0.000000
    28  H    2.418186   1.014380   0.000000
    29  H    3.629340   1.014381   1.699068   0.000000
    30  C    5.132407   5.549844   5.948976   5.745741   0.000000
    31  H    4.145742   4.853076   5.126038   5.184998   1.100209
    32  H    5.203743   5.101680   5.644388   5.145515   1.101578
    33  H    5.883017   6.240964   6.556919   6.356080   1.098609
    34  C    9.062787  10.114325  10.576268  10.456317   5.121244
    35  H    9.608289  10.526550  11.067145  10.837313   5.745533
    36  H    9.223816  10.533816  10.929606  10.963948   5.713240
    37  H    9.631716  10.591028  11.031424  10.871327   5.305672
    38  C    4.516802   5.495693   6.008087   6.201125   6.214661
    39  H    4.347050   4.806072   5.456668   5.396850   5.814300
    40  H    3.668424   5.039739   5.391135   5.865821   6.136461
    41  H    5.306717   6.176522   6.679494   6.868977   7.299780
    42  C    8.692642  10.086862  10.585732  10.712651   7.876328
    43  H    8.903837  10.501190  10.927109  11.163316   7.941405
    44  H    9.320841  10.514348  11.084918  11.059719   7.985255
    45  H    9.148121  10.554698  11.043300  11.210126   8.802804
                   31         32         33         34         35
    31  H    0.000000
    32  H    1.766380   0.000000
    33  H    1.785198   1.778595   0.000000
    34  C    5.783308   5.711382   5.276900   0.000000
    35  H    6.461857   6.176027   5.994158   1.102222   0.000000
    36  H    6.218660   6.414744   5.894330   1.102581   1.766800
    37  H    6.052710   5.913076   5.236892   1.095983   1.793052
    38  C    5.816244   6.135200   7.300065   7.875523   7.943687
    39  H    5.481365   5.555556   6.908729   7.953162   7.999609
    40  H    5.558601   6.160020   7.184113   8.177784   8.384209
    41  H    6.910573   7.182269   8.388624   8.719422   8.705105
    42  C    7.955452   8.177611   8.720164   5.766476   5.442109
    43  H    7.999444   8.380953   8.702603   5.436391   5.228279
    44  H    8.210603   8.220716   8.790555   5.448412   4.931195
    45  H    8.817255   9.064761   9.686533   6.857131   6.508478
                   36         37         38         39         40
    36  H    0.000000
    37  H    1.792002   0.000000
    38  C    7.981094   8.802132   0.000000
    39  H    8.205205   8.815581   1.100206   0.000000
    40  H    8.218139   9.064448   1.101582   1.766215   0.000000
    41  H    8.786221   9.686020   1.098605   1.785227   1.778691
    42  C    5.442358   6.857120   5.121420   5.783226   5.711674
    43  H    4.920093   6.501868   5.747128   6.462077   6.178257
    44  H    5.237558   6.513790   5.711765   6.216978   6.414180
    45  H    6.506904   7.945754   5.306088   6.053968   5.912306
                   41         42         43         44         45
    41  H    0.000000
    42  C    5.277502   0.000000
    43  H    5.997208   1.102196   0.000000
    44  H    5.891846   1.102598   1.766862   0.000000
    45  H    5.238133   1.095991   1.793113   1.791853   0.000000
 Stoichiometry    C19H20BF2N3
 Framework group  C1[X(C19H20BF2N3)]
 Deg. of freedom   129
 Full point group                 C1      NOp   1
 Largest Abelian subgroup         C1      NOp   1
 Largest concise Abelian subgroup C1      NOp   1
                         Standard orientation:                         
 ---------------------------------------------------------------------
 Center     Atomic      Atomic             Coordinates (Angstroms)
 Number     Number       Type             X           Y           Z
 ---------------------------------------------------------------------
      1          6           0       -0.388063   -1.219378   -0.004799
      2          6           0       -0.392517    1.220119    0.013663
      3          6           0        0.336553    0.001668    0.005741
      4          6           0        0.070771   -2.593023   -0.061069
      5          6           0       -1.076628   -3.374588   -0.056486
      6          6           0       -2.205505   -2.520604   -0.010947
      7          1           0       -1.122474   -4.462071   -0.093937
      8          6           0       -2.214186    2.515320    0.011629
      9          6           0        0.061557    2.595130    0.072686
     10          6           0       -1.088389    3.372972    0.063226
     11          1           0       -1.137978    4.460263    0.101279
     12          7           0       -1.780477   -1.236495    0.016624
     13          7           0       -1.784792    1.232606   -0.014514
     14          5           0       -2.705981   -0.003543   -0.004250
     15          9           0       -3.517019   -0.020694   -1.144798
     16          9           0       -3.530566    0.010444    1.126468
     17          6           0        1.820342    0.004791    0.003470
     18          6           0        2.546798   -0.319240    1.157256
     19          6           0        2.539391    0.329183   -1.154871
     20          6           0        3.936940   -0.316916    1.160551
     21          1           0        2.010329   -0.576829    2.074073
     22          6           0        3.929387    0.329926   -1.166216
     23          1           0        1.997000    0.580182   -2.070034
     24          6           0        4.659089    0.008993   -0.004537
     25          1           0        4.483337   -0.568976    2.072313
     26          1           0        4.469986    0.580264   -2.081908
     27          7           0        6.034023    0.059653    0.004392
     28          1           0        6.495184   -0.004359   -0.896829
     29          1           0        6.501612   -0.458701    0.740352
     30          6           0        1.474163   -3.101147   -0.128997
     31          1           0        2.064489   -2.582189   -0.898839
     32          1           0        2.009106   -2.966020    0.824444
     33          1           0        1.464101   -4.174977   -0.360795
     34          6           0       -3.641158   -2.888289   -0.005229
     35          1           0       -4.146656   -2.469227    0.880069
     36          1           0       -4.153112   -2.468094   -0.886719
     37          1           0       -3.757102   -3.978121   -0.006793
     38          6           0        1.463061    3.107313    0.148322
     39          1           0        2.051004    2.588554    0.920115
     40          1           0        2.003254    2.975241   -0.802589
     41          1           0        1.448834    4.180681    0.382010
     42          6           0       -3.651053    2.878177   -0.000955
     43          1           0       -4.152252    2.451998   -0.885267
     44          1           0       -4.164565    2.461936    0.881525
     45          1           0       -3.770533    3.967622   -0.006387
 ---------------------------------------------------------------------
 Rotational constants (GHZ):           0.3597316           0.1747087           0.1257542
 Standard basis: def2SVP (5D, 7F)
 There are   475 symmetry adapted cartesian basis functions of A   symmetry.
 There are   450 symmetry adapted basis functions of A   symmetry.
   450 basis functions,   765 primitive gaussians,   475 cartesian basis functions
    89 alpha electrons       89 beta electrons
       nuclear repulsion energy      2216.3712226832 Hartrees.
 NAtoms=   45 NActive=   45 NUniq=   45 SFac= 1.00D+00 NAtFMM=   60 NAOKFM=F Big=F
 Integral buffers will be    131072 words long.
 Regular integral format.
 Two-electron integral symmetry is turned on.
 ------------------------------------------------------------------------------
 Polarizable Continuum Model (PCM)
 =================================
 Model                : PCM.
 Atomic radii         : SMD-Coulomb.
 Polarization charges : Total charges.
 Charge compensation  : None.
 Solution method      : On-the-fly selection.
 Cavity type          : VdW (van der Waals Surface) (Alpha=1.000).
 Cavity algorithm     : GePol (No added spheres)
                        Default sphere list used, NSphG=   45.
                        Lebedev-Laikov grids with approx.  5.0 points / Ang**2.
                        Smoothing algorithm: York/Karplus (Gamma=1.0000).
                        Polarization charges: spherical gaussians, with
                                              point-specific exponents (IZeta= 3).
                        Self-potential: point-specific (ISelfS= 7).
                        Self-field    : sphere-specific E.n sum rule (ISelfD= 2).
 1st derivatives      : Analytical E(r).r(x)/FMM algorithm (CHGder, D1EAlg=3).
                        Cavity 1st derivative terms included.
 Solvent              : Ethanol, Eps=  24.852000 Eps(inf)=   1.852593
 ------------------------------------------------------------------------------
 ------------------------------------------------------------------------------
 Atomic radii for non-electrostatic terms: SMD-CDS.
 ------------------------------------------------------------------------------
 Nuclear repulsion after PCM non-electrostatic terms =     2216.3689027461 Hartrees.
 One-electron integrals computed using PRISM.
   1 Symmetry operations used in ECPInt.
 ECPInt:  NShTT=   22155 NPrTT=   80585 LenC2=   19727 LenP2D=   49206.
 LDataN:  DoStor=T MaxTD1= 4 Len=   56
 NBasis=   450 RedAO= T EigKep=  2.39D-04  NBF=   450
 NBsUse=   450 1.00D-06 EigRej= -1.00D+00 NBFU=   450
 Initial guess from the checkpoint file:  "06BDP-NH2_m062x_def2SVP_dmso.chk"
 B after Tr=    -0.000000    0.000000    0.000000
         Rot=    1.000000   -0.000000    0.000000    0.000000 Ang=   0.00 deg.
 Requested convergence on RMS density matrix=1.00D-08 within 128 cycles.
 Requested convergence on MAX density matrix=1.00D-06.
 Requested convergence on             energy=1.00D-06.
 No special actions if energy rises.
 Inv3:  Mode=1 IEnd=    30681612.
 Iteration    1 A*A^-1 deviation from unit magnitude is 7.55D-15 for   3198.
 Iteration    1 A*A^-1 deviation from orthogonality  is 3.77D-15 for   2696   1770.
 Iteration    1 A^-1*A deviation from unit magnitude is 7.55D-15 for   3198.
 Iteration    1 A^-1*A deviation from orthogonality  is 8.99D-15 for   2952   2894.
 Error on total polarization charges =  0.04803
 SCF Done:  E(RM062X) =  -1123.82563124     A.U. after    1 cycles
            NFock=  1  Conv=0.34D-08     -V/T= 2.0103
 SMD-CDS (non-electrostatic) energy       (kcal/mol) =      -1.46
 (included in total energy above)
 DoSCS=F DFT=T ScalE2(SS,OS)=  1.000000  1.000000
 ExpMin= 8.36D-02 ExpMax= 2.89D+03 ExpMxC= 4.35D+02 IAcc=3 IRadAn=         5 AccDes= 0.00D+00
 HarFok:  IExCor=  205 AccDes= 0.00D+00 IRadAn=         5 IDoV=-2 UseB2=F ITyADJ=14
 ICtDFT= 12500011 ScaDFX=  1.000000  1.000000  1.000000  1.000000
 GSVD:  LWork=        -825 too small for GESVD, short by        3500 words or        3500 for optimal perf.
 Range of M.O.s used for correlation:    26   450
 NBasis=   450 NAE=    89 NBE=    89 NFC=    25 NFV=     0
 NROrb=    425 NOA=    64 NOB=    64 NVA=   361 NVB=   361

 **** Warning!!: The largest alpha MO coefficient is  0.13550099D+02

 NEqPCM:  Using non-equilibrium solvation (IEInf=1, Eps=  24.8520, EpsInf=   1.8526)
 Inv3:  Mode=1 IEnd=    30681612.
 Iteration    1 A*A^-1 deviation from unit magnitude is 8.44D-15 for   3187.
 Iteration    1 A*A^-1 deviation from orthogonality  is 2.88D-15 for   2800   2044.
 Iteration    1 A^-1*A deviation from unit magnitude is 8.44D-15 for   3187.
 Iteration    1 A^-1*A deviation from orthogonality  is 2.94D-15 for   3062    511.
 Orbital symmetries:
       Occupied  (A) (A) (A) (A) (A) (A) (A) (A) (A) (A) (A) (A)
                 (A) (A) (A) (A) (A) (A) (A) (A) (A) (A) (A) (A)
                 (A) (A) (A) (A) (A) (A) (A) (A) (A) (A) (A) (A)
                 (A) (A) (A) (A) (A) (A) (A) (A) (A) (A) (A) (A)
                 (A) (A) (A) (A) (A) (A) (A) (A) (A) (A) (A) (A)
                 (A) (A) (A) (A) (A) (A) (A) (A) (A) (A) (A) (A)
                 (A) (A) (A) (A) (A) (A) (A) (A) (A) (A) (A) (A)
                 (A) (A) (A) (A) (A)
       Virtual   (A) (A) (A) (A) (A) (A) (A) (A) (A) (A) (A) (A)
                 (A) (A) (A) (A) (A) (A) (A) (A) (A) (A) (A) (A)
                 (A) (A) (A) (A) (A) (A) (A) (A) (A) (A) (A) (A)
                 (A) (A) (A) (A) (A) (A) (A) (A) (A) (A) (A) (A)
                 (A) (A) (A) (A) (A) (A) (A) (A) (A) (A) (A) (A)
                 (A) (A) (A) (A) (A) (A) (A) (A) (A) (A) (A) (A)
                 (A) (A) (A) (A) (A) (A) (A) (A) (A) (A) (A) (A)
                 (A) (A) (A) (A) (A) (A) (A) (A) (A) (A) (A) (A)
                 (A) (A) (A) (A) (A) (A) (A) (A) (A) (A) (A) (A)
                 (A) (A) (A) (A) (A) (A) (A) (A) (A) (A) (A) (A)
                 (A) (A) (A) (A) (A) (A) (A) (A) (A) (A) (A) (A)
                 (A) (A) (A) (A) (A) (A) (A) (A) (A) (A) (A) (A)
                 (A) (A) (A) (A) (A) (A) (A) (A) (A) (A) (A) (A)
                 (A) (A) (A) (A) (A) (A) (A) (A) (A) (A) (A) (A)
                 (A) (A) (A) (A) (A) (A) (A) (A) (A) (A) (A) (A)
                 (A) (A) (A) (A) (A) (A) (A) (A) (A) (A) (A) (A)
                 (A) (A) (A) (A) (A) (A) (A) (A) (A) (A) (A) (A)
                 (A) (A) (A) (A) (A) (A) (A) (A) (A) (A) (A) (A)
                 (A) (A) (A) (A) (A) (A) (A) (A) (A) (A) (A) (A)
                 (A) (A) (A) (A) (A) (A) (A) (A) (A) (A) (A) (A)
                 (A) (A) (A) (A) (A) (A) (A) (A) (A) (A) (A) (A)
                 (A) (A) (A) (A) (A) (A) (A) (A) (A) (A) (A) (A)
                 (A) (A) (A) (A) (A) (A) (A) (A) (A) (A) (A) (A)
                 (A) (A) (A) (A) (A) (A) (A) (A) (A) (A) (A) (A)
                 (A) (A) (A) (A) (A) (A) (A) (A) (A) (A) (A) (A)
                 (A) (A) (A) (A) (A) (A) (A) (A) (A) (A) (A) (A)
                 (A) (A) (A) (A) (A) (A) (A) (A) (A) (A) (A) (A)
                 (A) (A) (A) (A) (A) (A) (A) (A) (A) (A) (A) (A)
                 (A) (A) (A) (A) (A) (A) (A) (A) (A) (A) (A) (A)
                 (A) (A) (A) (A) (A) (A) (A) (A) (A) (A) (A) (A)
                 (A)
    20 initial guesses have been made.
 Convergence on wavefunction:    0.000001000000000
 Iteration     1 Dimension    20 NMult     0 NNew     20
 CISAX will form    20 AO SS matrices at one time.
 New state      1 was old state      2
 New state      2 was old state      1
 New state      4 was old state      5
 New state      5 was old state      4
 Iteration     2 Dimension    30 NMult    20 NNew     10
 New state      1 was old state      2
 New state      2 was old state      1
 New state      4 was old state      5
 New state      5 was old state      4
 Iteration     3 Dimension    40 NMult    30 NNew     10
 Iteration     4 Dimension    50 NMult    40 NNew     10
 Iteration     5 Dimension    60 NMult    50 NNew     10
 Iteration     6 Dimension    70 NMult    60 NNew     10
 Iteration     7 Dimension    80 NMult    70 NNew     10
 Iteration     8 Dimension    90 NMult    80 NNew     10
 Iteration     9 Dimension   100 NMult    90 NNew     10
 Iteration    10 Dimension   108 NMult   100 NNew      8
 Iteration    11 Dimension   112 NMult   108 NNew      4
 PCM Corrected Linear-Response:
 The state of interest is root number   1
 Excitation energy =    2.9619 eV, Total energy =  -1123.71678468    
 Recompute the excitation energies using the linear response reaction field.
 Convergence on wavefunction:    0.000001000000000
 Iteration     1 Dimension     5 NMult     0 NNew      5
 New state      1 was old state      2
 New state      2 was old state      1
 Iteration     2 Dimension    15 NMult     5 NNew     10
 New state      1 was old state      2
 New state      2 was old state      1
 Iteration     3 Dimension    25 NMult    15 NNew     10
 Iteration     4 Dimension    35 NMult    25 NNew     10
 Iteration     5 Dimension    45 NMult    35 NNew     10
 Iteration     6 Dimension    55 NMult    45 NNew     10
 Iteration     7 Dimension    65 NMult    55 NNew     10
 Iteration     8 Dimension    75 NMult    65 NNew     10
 Iteration     9 Dimension    85 NMult    75 NNew     10
 Iteration    10 Dimension    91 NMult    85 NNew      6
 Iteration    11 Dimension    95 NMult    91 NNew      4
 Iteration    12 Dimension    97 NMult    95 NNew      2
 ***********************************************************************
 Excited states from <AA,BB:AA,BB> singles matrix:
 ***********************************************************************
 
 Ground to excited state transition densities written to RWF  633
 Ground to excited state transition electric dipole moments (Au):
       state          X           Y           Z        Dip. S.      Osc.
         1        -0.0031     -3.0375     -0.0568      9.2297      0.6334
         2        -1.0642      0.0185      0.0000      1.1330      0.0854
         3         0.0019      0.6544      0.0465      0.4304      0.0411
         4         0.7530     -0.0017      0.0020      0.5670      0.0584
         5        -0.0013     -0.1173     -0.0817      0.0205      0.0023
 Ground to excited state transition velocity dipole moments (Au):
       state          X           Y           Z        Dip. S.      Osc.
         1         0.0003      0.3152      0.0058      0.0994      0.6435
         2         0.1195     -0.0023     -0.0002      0.0143      0.0842
         3        -0.0003     -0.0975     -0.0066      0.0096      0.0444
         4        -0.1182      0.0002     -0.0003      0.0140      0.0603
         5         0.0003      0.0222      0.0166      0.0008      0.0030
 Ground to excited state transition magnetic dipole moments (Au):
       state          X           Y           Z
         1        -0.0039     -0.0059      0.6489
         2         0.1350      0.0066     -0.0039
         3        -0.0031     -0.0119      1.7549
         4         0.0031     -0.0017     -0.0076
         5        -0.0031      0.1589      0.0405
 Ground to excited state transition velocity quadrupole moments (Au):
       state          XX          YY          ZZ          XY          XZ          YZ
         1         0.0087     -0.0038      0.0004     -0.8605      0.0067      0.0017
         2         0.7061     -0.3349      0.0272      0.0113     -0.0014     -0.0084
         3         0.0026     -0.0034     -0.0002     -0.4053     -0.0160     -0.0021
         4         0.3097     -0.3784     -0.0046      0.0021     -0.0003     -0.0129
         5         0.0029     -0.0007      0.0003     -0.0225      0.1533      0.0012
 <0|del|b> * <b|rxdel|0> + <0|del|b> * <b|delr+rdel|0>
 Rotatory Strengths (R) in cgs (10**-40 erg-esu-cm/Gauss)
       state          XX          YY          ZZ    R(velocity)    E-M Angle
         1       -17.8520     29.9800      0.8239      4.3173       89.47
         2        -0.0618     47.3109     53.5154     33.5882        4.20
         3       -22.8434    -34.9942      6.7255    -17.0374       93.46
         4         0.0030      2.6594     -4.3304     -0.5560      111.54
         5         0.8839      2.1868     14.4689      5.8465       22.55
 1/2[<0|r|b>*<b|rxdel|0> + (<0|rxdel|b>*<b|r|0>)*]
 Rotatory Strengths (R) in cgs (10**-40 erg-esu-cm/Gauss)
       state          XX          YY          ZZ     R(length)
         1        -0.0086    -12.7162     26.0516      4.4423
         2       101.6015     -0.0866      0.0001     33.8383
         3         0.0042      5.5277    -57.7531    -17.4071
         4        -1.6509     -0.0020      0.0107     -0.5474
         5        -0.0029     13.1838      2.3433      5.1747
  1/2[<0|del|b>*<b|r|0> + (<0|r|b>*<b|del|0>)*] (Au)
       state          X           Y           Z        Dip. S.   Osc.(frdel)
         1        -0.0000     -0.9573     -0.0003      0.9576      0.6384
         2        -0.1272     -0.0000     -0.0000      0.1272      0.0848
         3        -0.0000     -0.0638     -0.0003      0.0641      0.0428
         4        -0.0890     -0.0000     -0.0000      0.0890      0.0594
         5        -0.0000     -0.0026     -0.0014      0.0040      0.0026

 Excitation energies and oscillator strengths:
 
 Excited State   1:      Singlet-A      2.8010 eV  442.65 nm  f=0.6334  <S**2>=0.000
      89 -> 90         0.70265
 This state for optimization and/or second-order correction.
 Total Energy, E(TD-HF/TD-DFT) =  -1123.72269810    
 Copying the excited state density for this state as the 1-particle RhoCI density.
 
 Excited State   2:      Singlet-A      3.0776 eV  402.86 nm  f=0.0854  <S**2>=0.000
      83 -> 90        -0.11014
      88 -> 90         0.69373
 
 Excited State   3:      Singlet-A      3.9009 eV  317.84 nm  f=0.0411  <S**2>=0.000
      85 -> 90        -0.14277
      87 -> 90         0.68568
 
 Excited State   4:      Singlet-A      4.2069 eV  294.72 nm  f=0.0584  <S**2>=0.000
      86 -> 90         0.70225
 
 Excited State   5:      Singlet-A      4.6065 eV  269.15 nm  f=0.0023  <S**2>=0.000
      85 -> 90         0.65635
      87 -> 90         0.13826
      88 -> 91         0.19963
 SavETr:  write IOETrn=   770 NScale= 10 NData=  16 NLR=1 NState=    5 LETran=     100.
 NEqPCM:  Using equilibrium solvation (IEInf=0, Eps=  24.8520, EpsInf=   1.8526)
          Differentiating once with respect to electric field.
                with respect to dipole field.
          Electric field/nuclear overlap derivatives assumed to be zero.
          There are     1 degrees of freedom in the 1st order CPHF.  IDoFFX=0 NUNeed=     1.
 LinEq1:  Iter=  0 NonCon=     1 RMS=3.07D-03 Max=3.47D-01 NDo=     1
 AX will form     1 AO Fock derivatives at one time.
 LinEq1:  Iter=  1 NonCon=     1 RMS=1.38D-03 Max=1.33D-01 NDo=     1
 LinEq1:  Iter=  2 NonCon=     1 RMS=6.86D-04 Max=4.93D-02 NDo=     1
 LinEq1:  Iter=  3 NonCon=     1 RMS=1.81D-04 Max=8.41D-03 NDo=     1
 LinEq1:  Iter=  4 NonCon=     1 RMS=1.01D-04 Max=6.07D-03 NDo=     1
 LinEq1:  Iter=  5 NonCon=     1 RMS=3.60D-05 Max=1.65D-03 NDo=     1
 LinEq1:  Iter=  6 NonCon=     1 RMS=2.18D-05 Max=1.31D-03 NDo=     1
 LinEq1:  Iter=  7 NonCon=     1 RMS=1.07D-05 Max=7.34D-04 NDo=     1
 LinEq1:  Iter=  8 NonCon=     1 RMS=4.74D-06 Max=3.07D-04 NDo=     1
 LinEq1:  Iter=  9 NonCon=     1 RMS=2.41D-06 Max=1.43D-04 NDo=     1
 LinEq1:  Iter= 10 NonCon=     1 RMS=8.68D-07 Max=4.49D-05 NDo=     1
 LinEq1:  Iter= 11 NonCon=     1 RMS=3.53D-07 Max=1.76D-05 NDo=     1
 LinEq1:  Iter= 12 NonCon=     1 RMS=1.45D-07 Max=6.56D-06 NDo=     1
 LinEq1:  Iter= 13 NonCon=     1 RMS=5.29D-08 Max=1.59D-06 NDo=     1
 LinEq1:  Iter= 14 NonCon=     1 RMS=1.96D-08 Max=8.43D-07 NDo=     1
 LinEq1:  Iter= 15 NonCon=     1 RMS=9.35D-09 Max=5.07D-07 NDo=     1
 LinEq1:  Iter= 16 NonCon=     1 RMS=3.68D-09 Max=3.17D-07 NDo=     1
 LinEq1:  Iter= 17 NonCon=     1 RMS=1.76D-09 Max=1.54D-07 NDo=     1
 LinEq1:  Iter= 18 NonCon=     1 RMS=6.90D-10 Max=4.93D-08 NDo=     1
 LinEq1:  Iter= 19 NonCon=     1 RMS=2.95D-10 Max=1.60D-08 NDo=     1
 LinEq1:  Iter= 20 NonCon=     1 RMS=1.33D-10 Max=4.14D-09 NDo=     1
 LinEq1:  Iter= 21 NonCon=     1 RMS=4.67D-11 Max=1.97D-09 NDo=     1
 LinEq1:  Iter= 22 NonCon=     1 RMS=2.64D-11 Max=1.31D-09 NDo=     1
 LinEq1:  Iter= 23 NonCon=     0 RMS=8.39D-12 Max=2.46D-10 NDo=     1
 Linear equations converged to 1.000D-10 1.000D-09 after    23 iterations.
 PCM Corrected Linear-Response - Non-equilibrium solvation:
 Corrected transition energy               =    2.9576          eV
 Total energy after correction             = -1123.71693979     a.u.
 End of Minotr F.D. properties file   721 does not exist.
 End of Minotr F.D. properties file   722 does not exist.
 End of Minotr F.D. properties file   788 does not exist.

 **********************************************************************

            Population analysis using the CI density.

 **********************************************************************

 Orbital symmetries:
       Occupied  (A) (A) (A) (A) (A) (A) (A) (A) (A) (A) (A) (A)
                 (A) (A) (A) (A) (A) (A) (A) (A) (A) (A) (A) (A)
                 (A) (A) (A) (A) (A) (A) (A) (A) (A) (A) (A) (A)
                 (A) (A) (A) (A) (A) (A) (A) (A) (A) (A) (A) (A)
                 (A) (A) (A) (A) (A) (A) (A) (A) (A) (A) (A) (A)
                 (A) (A) (A) (A) (A) (A) (A) (A) (A) (A) (A) (A)
                 (A) (A) (A) (A) (A) (A) (A) (A) (A) (A) (A) (A)
                 (A) (A) (A) (A) (A)
       Virtual   (A) (A) (A) (A) (A) (A) (A) (A) (A) (A) (A) (A)
                 (A) (A) (A) (A) (A) (A) (A) (A) (A) (A) (A) (A)
                 (A) (A) (A) (A) (A) (A) (A) (A) (A) (A) (A) (A)
                 (A) (A) (A) (A) (A) (A) (A) (A) (A) (A) (A) (A)
                 (A) (A) (A) (A) (A) (A) (A) (A) (A) (A) (A) (A)
                 (A) (A) (A) (A) (A) (A) (A) (A) (A) (A) (A) (A)
                 (A) (A) (A) (A) (A) (A) (A) (A) (A) (A) (A) (A)
                 (A) (A) (A) (A) (A) (A) (A) (A) (A) (A) (A) (A)
                 (A) (A) (A) (A) (A) (A) (A) (A) (A) (A) (A) (A)
                 (A) (A) (A) (A) (A) (A) (A) (A) (A) (A) (A) (A)
                 (A) (A) (A) (A) (A) (A) (A) (A) (A) (A) (A) (A)
                 (A) (A) (A) (A) (A) (A) (A) (A) (A) (A) (A) (A)
                 (A) (A) (A) (A) (A) (A) (A) (A) (A) (A) (A) (A)
                 (A) (A) (A) (A) (A) (A) (A) (A) (A) (A) (A) (A)
                 (A) (A) (A) (A) (A) (A) (A) (A) (A) (A) (A) (A)
                 (A) (A) (A) (A) (A) (A) (A) (A) (A) (A) (A) (A)
                 (A) (A) (A) (A) (A) (A) (A) (A) (A) (A) (A) (A)
                 (A) (A) (A) (A) (A) (A) (A) (A) (A) (A) (A) (A)
                 (A) (A) (A) (A) (A) (A) (A) (A) (A) (A) (A) (A)
                 (A) (A) (A) (A) (A) (A) (A) (A) (A) (A) (A) (A)
                 (A) (A) (A) (A) (A) (A) (A) (A) (A) (A) (A) (A)
                 (A) (A) (A) (A) (A) (A) (A) (A) (A) (A) (A) (A)
                 (A) (A) (A) (A) (A) (A) (A) (A) (A) (A) (A) (A)
                 (A) (A) (A) (A) (A) (A) (A) (A) (A) (A) (A) (A)
                 (A) (A) (A) (A) (A) (A) (A) (A) (A) (A) (A) (A)
                 (A) (A) (A) (A) (A) (A) (A) (A) (A) (A) (A) (A)
                 (A) (A) (A) (A) (A) (A) (A) (A) (A) (A) (A) (A)
                 (A) (A) (A) (A) (A) (A) (A) (A) (A) (A) (A) (A)
                 (A) (A) (A) (A) (A) (A) (A) (A) (A) (A) (A) (A)
                 (A) (A) (A) (A) (A) (A) (A) (A) (A) (A) (A) (A)
                 (A)
 The electronic state is 1-A.
 Alpha  occ. eigenvalues --  -25.20042 -25.20033 -14.78473 -14.78469 -14.75815
 Alpha  occ. eigenvalues --  -10.60933 -10.60494 -10.60490 -10.60005 -10.59014
 Alpha  occ. eigenvalues --  -10.59005 -10.57323 -10.57315 -10.56330 -10.56234
 Alpha  occ. eigenvalues --  -10.56212 -10.55112 -10.55110 -10.55040 -10.55038
 Alpha  occ. eigenvalues --  -10.54780 -10.54755 -10.54421 -10.54414  -7.13373
 Alpha  occ. eigenvalues --   -1.28891  -1.25342  -1.08941  -1.07065  -1.01431
 Alpha  occ. eigenvalues --   -0.95032  -0.90307  -0.89255  -0.88540  -0.84933
 Alpha  occ. eigenvalues --   -0.83855  -0.83346  -0.79294  -0.78864  -0.78502
 Alpha  occ. eigenvalues --   -0.74658  -0.70037  -0.69310  -0.68468  -0.66129
 Alpha  occ. eigenvalues --   -0.63715  -0.62834  -0.62023  -0.60111  -0.59593
 Alpha  occ. eigenvalues --   -0.58409  -0.58019  -0.57272  -0.55070  -0.54290
 Alpha  occ. eigenvalues --   -0.52302  -0.51918  -0.51528  -0.50365  -0.49758
 Alpha  occ. eigenvalues --   -0.49641  -0.49339  -0.48329  -0.48117  -0.48033
 Alpha  occ. eigenvalues --   -0.47860  -0.47316  -0.46535  -0.46129  -0.46036
 Alpha  occ. eigenvalues --   -0.45983  -0.45932  -0.45701  -0.44413  -0.44165
 Alpha  occ. eigenvalues --   -0.43506  -0.43472  -0.42629  -0.42141  -0.41118
 Alpha  occ. eigenvalues --   -0.39978  -0.39630  -0.37096  -0.33610  -0.31304
 Alpha  occ. eigenvalues --   -0.31093  -0.30090  -0.25566  -0.24481
 Alpha virt. eigenvalues --   -0.07238   0.02094   0.03563   0.06613   0.08496
 Alpha virt. eigenvalues --    0.10304   0.10812   0.11863   0.12219   0.12721
 Alpha virt. eigenvalues --    0.13269   0.13307   0.13944   0.14767   0.14917
 Alpha virt. eigenvalues --    0.15365   0.17070   0.17160   0.17247   0.17970
 Alpha virt. eigenvalues --    0.19535   0.20053   0.20212   0.20337   0.20801
 Alpha virt. eigenvalues --    0.20902   0.21113   0.21607   0.22635   0.23030
 Alpha virt. eigenvalues --    0.25028   0.26096   0.26201   0.26398   0.26621
 Alpha virt. eigenvalues --    0.28203   0.28702   0.28933   0.30636   0.30964
 Alpha virt. eigenvalues --    0.31648   0.32753   0.33187   0.33733   0.35235
 Alpha virt. eigenvalues --    0.35290   0.37381   0.37599   0.38594   0.39060
 Alpha virt. eigenvalues --    0.41135   0.41671   0.41696   0.42414   0.43488
 Alpha virt. eigenvalues --    0.43733   0.44428   0.45185   0.45864   0.46563
 Alpha virt. eigenvalues --    0.46894   0.47755   0.47899   0.48087   0.48950
 Alpha virt. eigenvalues --    0.49408   0.49960   0.50429   0.51597   0.51867
 Alpha virt. eigenvalues --    0.52865   0.53361   0.54158   0.54813   0.55539
 Alpha virt. eigenvalues --    0.55922   0.56544   0.57069   0.59410   0.60257
 Alpha virt. eigenvalues --    0.60359   0.62190   0.62398   0.62787   0.63293
 Alpha virt. eigenvalues --    0.63876   0.64765   0.65716   0.66015   0.66770
 Alpha virt. eigenvalues --    0.68564   0.69243   0.69678   0.70168   0.70323
 Alpha virt. eigenvalues --    0.70462   0.70546   0.71063   0.72109   0.72141
 Alpha virt. eigenvalues --    0.72725   0.73199   0.73267   0.73932   0.74084
 Alpha virt. eigenvalues --    0.74176   0.74675   0.74959   0.75019   0.76086
 Alpha virt. eigenvalues --    0.76594   0.76688   0.77110   0.77914   0.78015
 Alpha virt. eigenvalues --    0.78209   0.78921   0.79012   0.79360   0.79463
 Alpha virt. eigenvalues --    0.80737   0.81648   0.81900   0.82431   0.82995
 Alpha virt. eigenvalues --    0.84376   0.84616   0.85040   0.85472   0.86453
 Alpha virt. eigenvalues --    0.88496   0.89040   0.89389   0.90267   0.91890
 Alpha virt. eigenvalues --    0.94710   0.95424   0.95820   0.96491   0.97552
 Alpha virt. eigenvalues --    0.98360   1.00051   1.01286   1.04346   1.04544
 Alpha virt. eigenvalues --    1.05472   1.08094   1.09184   1.10653   1.12028
 Alpha virt. eigenvalues --    1.12798   1.13128   1.15495   1.16028   1.17677
 Alpha virt. eigenvalues --    1.20686   1.21025   1.21713   1.21748   1.24426
 Alpha virt. eigenvalues --    1.25367   1.26288   1.26906   1.27092   1.28873
 Alpha virt. eigenvalues --    1.29715   1.30277   1.32390   1.32503   1.34403
 Alpha virt. eigenvalues --    1.34623   1.35736   1.36281   1.37392   1.37842
 Alpha virt. eigenvalues --    1.39162   1.39330   1.40545   1.41489   1.42413
 Alpha virt. eigenvalues --    1.44201   1.45277   1.46320   1.48443   1.51462
 Alpha virt. eigenvalues --    1.54280   1.55861   1.56227   1.57177   1.57839
 Alpha virt. eigenvalues --    1.59012   1.59167   1.59739   1.59840   1.60201
 Alpha virt. eigenvalues --    1.61460   1.62581   1.62991   1.65185   1.65715
 Alpha virt. eigenvalues --    1.68909   1.70050   1.70748   1.71675   1.71742
 Alpha virt. eigenvalues --    1.72293   1.72364   1.72872   1.74326   1.75599
 Alpha virt. eigenvalues --    1.75776   1.77011   1.77837   1.78630   1.78698
 Alpha virt. eigenvalues --    1.79389   1.79862   1.80810   1.80900   1.81795
 Alpha virt. eigenvalues --    1.81941   1.82438   1.82748   1.83713   1.84030
 Alpha virt. eigenvalues --    1.84569   1.84896   1.85159   1.85265   1.85737
 Alpha virt. eigenvalues --    1.87172   1.87680   1.88082   1.88716   1.89116
 Alpha virt. eigenvalues --    1.89583   1.90720   1.91870   1.92177   1.92914
 Alpha virt. eigenvalues --    1.95667   1.96561   1.97543   1.98172   1.98337
 Alpha virt. eigenvalues --    1.99520   2.00443   2.01154   2.01538   2.02305
 Alpha virt. eigenvalues --    2.02446   2.03431   2.06519   2.07253   2.07545
 Alpha virt. eigenvalues --    2.08264   2.09075   2.11563   2.12210   2.12516
 Alpha virt. eigenvalues --    2.13893   2.14326   2.16005   2.16659   2.17426
 Alpha virt. eigenvalues --    2.18717   2.18880   2.19678   2.21506   2.21722
 Alpha virt. eigenvalues --    2.22872   2.23922   2.24323   2.25032   2.25413
 Alpha virt. eigenvalues --    2.26363   2.28648   2.29400   2.30053   2.30212
 Alpha virt. eigenvalues --    2.32672   2.33077   2.34130   2.35600   2.37066
 Alpha virt. eigenvalues --    2.37717   2.39079   2.39245   2.41566   2.43178
 Alpha virt. eigenvalues --    2.44872   2.45306   2.46256   2.47507   2.48254
 Alpha virt. eigenvalues --    2.50757   2.51035   2.52136   2.54489   2.54686
 Alpha virt. eigenvalues --    2.59227   2.60324   2.63821   2.64260   2.65128
 Alpha virt. eigenvalues --    2.66509   2.66912   2.68278   2.69032   2.70461
 Alpha virt. eigenvalues --    2.70776   2.71902   2.72144   2.73123   2.74993
 Alpha virt. eigenvalues --    2.75410   2.75555   2.76235   2.76385   2.77870
 Alpha virt. eigenvalues --    2.80953   2.82244   2.84649   2.88551   2.91226
 Alpha virt. eigenvalues --    2.93495   2.93577   2.94291   2.94986   2.95901
 Alpha virt. eigenvalues --    2.96064   2.96498   2.97483   2.98389   2.99099
 Alpha virt. eigenvalues --    3.02629   3.04930   3.07189   3.08899   3.10344
 Alpha virt. eigenvalues --    3.11461   3.18332   3.19019   3.19738   3.20256
 Alpha virt. eigenvalues --    3.21837   3.23627   3.24912   3.25151   3.25460
 Alpha virt. eigenvalues --    3.30731   3.33650   3.38951   3.44328   3.50431
 Alpha virt. eigenvalues --    3.50719   3.52938   3.62399   3.69026   3.82140
 Alpha virt. eigenvalues --    3.82272
          Condensed to atoms (all electrons):
               1          2          3          4          5          6
     1  C    5.172624   0.034068   0.281898   0.320244  -0.018781  -0.129404
     2  C    0.034068   5.172879   0.280791   0.015953  -0.001299  -0.001051
     3  C    0.281898   0.280791   5.594641  -0.106596   0.015295   0.017551
     4  C    0.320244   0.015953  -0.106596   5.282092   0.406316  -0.007365
     5  C   -0.018781  -0.001299   0.015295   0.406316   5.119939   0.386558
     6  C   -0.129404  -0.001051   0.017551  -0.007365   0.386558   5.036618
     7  H    0.015430   0.000004  -0.000396  -0.062851   0.458169  -0.056051
     8  C   -0.001050  -0.129484   0.017546   0.000002   0.000007   0.000122
     9  C    0.015976   0.320454  -0.106334  -0.000172   0.000001   0.000002
    10  C   -0.001302  -0.019022   0.015279   0.000001  -0.000000   0.000006
    11  H    0.000004   0.015438  -0.000397   0.000000   0.000000   0.000000
    12  N    0.442498   0.000534  -0.093550  -0.096972  -0.068001   0.404329
    13  N    0.000479   0.442561  -0.093448  -0.000027  -0.000107  -0.000513
    14  B   -0.048540  -0.048543  -0.010111   0.001516   0.005111  -0.025025
    15  F   -0.003435  -0.003398   0.001673  -0.000047  -0.000133  -0.001979
    16  F   -0.003402  -0.003446   0.001676  -0.000041  -0.000062  -0.002858
    17  C   -0.090694  -0.090406   0.387432  -0.024183   0.001571  -0.000385
    18  C   -0.008986  -0.001949  -0.092629  -0.000886  -0.000025  -0.000023
    19  C   -0.002610  -0.008676  -0.092632   0.000891  -0.000028  -0.000011
    20  C    0.001321   0.000373   0.012690  -0.000266  -0.000013   0.000000
    21  H   -0.000253  -0.001511  -0.012380   0.000443   0.000060  -0.000012
    22  C    0.000450   0.001249   0.012755  -0.000011  -0.000002  -0.000000
    23  H   -0.001582  -0.000207  -0.012423   0.000030   0.000016  -0.000003
    24  C    0.000023   0.000066   0.000689   0.000010   0.000001  -0.000000
    25  H   -0.000008  -0.000011  -0.000295  -0.000002  -0.000000   0.000000
    26  H   -0.000007  -0.000014  -0.000295   0.000004   0.000000   0.000000
    27  N   -0.000000  -0.000000   0.000012  -0.000000  -0.000000   0.000000
    28  H   -0.000000   0.000000   0.000000   0.000000  -0.000000   0.000000
    29  H   -0.000000   0.000000  -0.000000   0.000000   0.000000   0.000000
    30  C   -0.071531   0.000224  -0.011489   0.442107  -0.090395   0.014911
    31  H   -0.006049  -0.000412  -0.001546  -0.007860   0.006196  -0.000535
    32  H   -0.003758  -0.000133   0.001018  -0.008785   0.002266  -0.000400
    33  H    0.009300   0.000023   0.000182  -0.011768  -0.012592   0.000236
    34  C    0.009930   0.000024  -0.000188   0.012573  -0.084295   0.416279
    35  H   -0.000156   0.000015  -0.000031  -0.000343   0.004007  -0.008093
    36  H   -0.000068  -0.000011   0.000006  -0.000359   0.003435  -0.008133
    37  H   -0.000160   0.000001   0.000008   0.000552  -0.014578   0.000739
    38  C    0.000212  -0.071317  -0.011496  -0.000008   0.000000  -0.000000
    39  H   -0.000403  -0.006144  -0.001508  -0.000011   0.000000  -0.000000
    40  H   -0.000138  -0.003727   0.000957  -0.000006   0.000000   0.000000
    41  H    0.000023   0.009288   0.000184   0.000000  -0.000000   0.000000
    42  C    0.000025   0.009925  -0.000189  -0.000002   0.000000  -0.000007
    43  H    0.000015  -0.000155  -0.000031   0.000001   0.000000  -0.000003
    44  H   -0.000011  -0.000066   0.000007   0.000000   0.000000   0.000005
    45  H    0.000001  -0.000160   0.000008   0.000000   0.000000  -0.000000
[...]
    29  H   -0.000488  -0.023791  -0.000017   0.010868   0.000011  -0.004791
    30  C   -0.003644  -0.001382  -0.001696  -0.000527  -0.000097  -0.000204
    31  H    0.000456  -0.000728   0.000095   0.002938   0.000107   0.000321
    32  H   -0.000307   0.000597   0.000895  -0.000023  -0.000014   0.000132
    33  H    0.000080   0.000012   0.000022  -0.000033   0.000001  -0.000009
    34  C   -0.000000   0.000000  -0.000000   0.000000  -0.000000  -0.000000
    35  H   -0.000000  -0.000000   0.000000   0.000000   0.000000   0.000000
    36  H    0.000000   0.000000  -0.000000  -0.000000   0.000000  -0.000000
    37  H    0.000000  -0.000000   0.000000  -0.000000   0.000000  -0.000000
    38  C   -0.002999  -0.000485  -0.000092  -0.001259  -0.001652  -0.000218
    39  H   -0.003068   0.002767   0.000105  -0.000843   0.000101   0.000342
    40  H    0.008970  -0.000027  -0.000016   0.000624   0.000839   0.000135
    41  H    0.000316  -0.000032   0.000001   0.000012   0.000021  -0.000011
    42  C    0.000000   0.000000  -0.000000   0.000000  -0.000000  -0.000000
    43  H    0.000000   0.000000   0.000000  -0.000000   0.000000   0.000000
    44  H   -0.000000  -0.000000  -0.000000   0.000000  -0.000000  -0.000000
    45  H   -0.000000  -0.000000   0.000000  -0.000000   0.000000  -0.000000
              25         26         27         28         29         30
     1  C   -0.000008  -0.000007  -0.000000  -0.000000  -0.000000  -0.071531
     2  C   -0.000011  -0.000014  -0.000000   0.000000   0.000000   0.000224
     3  C   -0.000295  -0.000295   0.000012   0.000000  -0.000000  -0.011489
     4  C   -0.000002   0.000004  -0.000000   0.000000   0.000000   0.442107
     5  C   -0.000000   0.000000  -0.000000  -0.000000   0.000000  -0.090395
     6  C    0.000000   0.000000   0.000000   0.000000   0.000000   0.014911
     7  H    0.000000  -0.000000  -0.000000  -0.000000  -0.000000  -0.010168
     8  C    0.000000   0.000000   0.000000   0.000000   0.000000  -0.000000
     9  C    0.000004  -0.000003  -0.000000   0.000000   0.000000  -0.000008
    10  C    0.000000  -0.000000  -0.000000   0.000000  -0.000000   0.000000
    11  H   -0.000000  -0.000000  -0.000000   0.000000   0.000000  -0.000000
    12  N   -0.000000  -0.000000   0.000000  -0.000000  -0.000000   0.004454
    13  N   -0.000000  -0.000000   0.000000  -0.000000  -0.000000  -0.000004
    14  B   -0.000000  -0.000000   0.000000  -0.000000  -0.000000   0.000273
    15  F    0.000000  -0.000000   0.000000  -0.000000  -0.000000   0.000000
    16  F   -0.000000   0.000000   0.000000   0.000000   0.000000   0.000000
    17  C    0.017608   0.017577  -0.000444  -0.000009  -0.000013   0.000620
    18  C   -0.070914  -0.002837   0.007553  -0.000496   0.000495  -0.002907
    19  C   -0.002851  -0.070882   0.007587   0.000533  -0.000488  -0.003644
    20  C    0.466981   0.016450  -0.106996   0.010832  -0.023791  -0.001382
    21  H   -0.012308   0.000017  -0.000093   0.000011  -0.000017  -0.001696
    22  C    0.016468   0.466921  -0.107172  -0.023704   0.010868  -0.000527
    23  H    0.000018  -0.012291  -0.000094  -0.000018   0.000011  -0.000097
    24  C   -0.081785  -0.081732   0.464160  -0.004956  -0.004791  -0.000204
    25  H    0.646708  -0.000177  -0.010671  -0.000292   0.004744   0.000025
    26  H   -0.000177   0.646654  -0.010690   0.004772  -0.000287  -0.000017
    27  N   -0.010671  -0.010690   6.188046   0.367369   0.367217   0.000003
    28  H   -0.000292   0.004772   0.367369   0.509892  -0.026830   0.000000
    29  H    0.004744  -0.000287   0.367217  -0.026830   0.510103   0.000000
    30  C    0.000025  -0.000017   0.000003   0.000000   0.000000   4.523857
    31  H   -0.000009   0.000052  -0.000046  -0.000004  -0.000005   0.372602
    32  H   -0.000029   0.000004  -0.000010  -0.000001  -0.000001   0.371210
    33  H    0.000002  -0.000000   0.000000   0.000000   0.000000   0.382254
    34  C   -0.000000  -0.000000  -0.000000  -0.000000  -0.000000  -0.000218
    35  H    0.000000  -0.000000  -0.000000  -0.000000   0.000000   0.000011
    36  H   -0.000000   0.000000   0.000000   0.000000  -0.000000   0.000009
    37  H    0.000000   0.000000  -0.000000   0.000000   0.000000  -0.000013
    38  C   -0.000015   0.000032   0.000002  -0.000001  -0.000000  -0.000002
    39  H    0.000041  -0.000020  -0.000049   0.000002   0.000001   0.000002
    40  H    0.000003  -0.000039  -0.000012  -0.000000   0.000000   0.000000
    41  H   -0.000000   0.000002   0.000000  -0.000000  -0.000000   0.000000
    42  C   -0.000000  -0.000000  -0.000000  -0.000000  -0.000000  -0.000000
    43  H   -0.000000   0.000000  -0.000000   0.000000   0.000000  -0.000000
    44  H    0.000000  -0.000000   0.000000  -0.000000   0.000000  -0.000000
    45  H    0.000000   0.000000  -0.000000   0.000000   0.000000   0.000000
              31         32         33         34         35         36
     1  C   -0.006049  -0.003758   0.009300   0.009930  -0.000156  -0.000068
     2  C   -0.000412  -0.000133   0.000023   0.000024   0.000015  -0.000011
     3  C   -0.001546   0.001018   0.000182  -0.000188  -0.000031   0.000006
     4  C   -0.007860  -0.008785  -0.011768   0.012573  -0.000343  -0.000359
     5  C    0.006196   0.002266  -0.012592  -0.084295   0.004007   0.003435
     6  C   -0.000535  -0.000400   0.000236   0.416279  -0.008093  -0.008133
     7  H    0.000098   0.000267   0.004295  -0.009481   0.000139   0.000153
     8  C   -0.000000   0.000000   0.000000  -0.000007  -0.000002   0.000004
     9  C   -0.000011  -0.000006   0.000000  -0.000002   0.000001   0.000000
    10  C    0.000000   0.000000  -0.000000   0.000000   0.000000   0.000000
    11  H    0.000000   0.000000  -0.000000   0.000000  -0.000000  -0.000000
    12  N    0.000012  -0.000037  -0.000093  -0.073548  -0.003656  -0.003577
    13  N    0.000001   0.000000  -0.000000   0.000209   0.000091   0.000098
    14  B   -0.000001   0.000006   0.000002  -0.002407   0.008218   0.007975
    15  F   -0.000000   0.000000  -0.000000  -0.002181  -0.001765   0.008808
    16  F    0.000000  -0.000000  -0.000000  -0.002046   0.008428  -0.001648
    17  C    0.006499  -0.002885   0.000420   0.000006  -0.000001   0.000000
    18  C   -0.003169   0.009217   0.000321   0.000000   0.000000  -0.000000
    19  C    0.000456  -0.000307   0.000080  -0.000000  -0.000000   0.000000
    20  C   -0.000728   0.000597   0.000012   0.000000  -0.000000   0.000000
    21  H    0.000095   0.000895   0.000022  -0.000000   0.000000  -0.000000
    22  C    0.002938  -0.000023  -0.000033   0.000000   0.000000  -0.000000
    23  H    0.000107  -0.000014   0.000001  -0.000000   0.000000   0.000000
    24  C    0.000321   0.000132  -0.000009  -0.000000   0.000000  -0.000000
    25  H   -0.000009  -0.000029   0.000002  -0.000000   0.000000  -0.000000
    26  H    0.000052   0.000004  -0.000000  -0.000000  -0.000000   0.000000
    27  N   -0.000046  -0.000010   0.000000  -0.000000  -0.000000   0.000000
    28  H   -0.000004  -0.000001   0.000000  -0.000000  -0.000000   0.000000
    29  H   -0.000005  -0.000001   0.000000  -0.000000   0.000000  -0.000000
    30  C    0.372602   0.371210   0.382254  -0.000218   0.000011   0.000009
    31  H    0.616673  -0.020902  -0.020743   0.000010   0.000000  -0.000001
    32  H   -0.020902   0.604440  -0.018058   0.000008  -0.000002   0.000001
    33  H   -0.020743  -0.018058   0.612917  -0.000014   0.000000  -0.000001
    34  C    0.000010   0.000008  -0.000014   4.572526   0.365938   0.365469
    35  H    0.000000  -0.000002   0.000000   0.365938   0.580072  -0.023942
    36  H   -0.000001   0.000001  -0.000001   0.365469  -0.023942   0.578853
    37  H    0.000000  -0.000000   0.000001   0.379264  -0.016049  -0.015538
    38  C    0.000002   0.000000   0.000000  -0.000000  -0.000000  -0.000000
    39  H   -0.000002   0.000005  -0.000000  -0.000000  -0.000000   0.000000
    40  H    0.000005  -0.000001   0.000000   0.000000   0.000000  -0.000000
    41  H   -0.000000   0.000000  -0.000000   0.000000  -0.000000   0.000000
    42  C   -0.000000   0.000000   0.000000   0.000025  -0.000009  -0.000010
    43  H   -0.000000   0.000000  -0.000000  -0.000008  -0.000012   0.000039
    44  H    0.000000  -0.000000   0.000000  -0.000010   0.000039  -0.000014
    45  H   -0.000000  -0.000000   0.000000   0.000000  -0.000000  -0.000000
              37         38         39         40         41         42
     1  C   -0.000160   0.000212  -0.000403  -0.000138   0.000023   0.000025
     2  C    0.000001  -0.071317  -0.006144  -0.003727   0.009288   0.009925
     3  C    0.000008  -0.011496  -0.001508   0.000957   0.000184  -0.000189
     4  C    0.000552  -0.000008  -0.000011  -0.000006   0.000000  -0.000002
     5  C   -0.014578   0.000000   0.000000   0.000000  -0.000000   0.000000
     6  C    0.000739  -0.000000  -0.000000   0.000000   0.000000  -0.000007
     7  H    0.003341  -0.000000   0.000000   0.000000  -0.000000   0.000000
     8  C   -0.000000   0.014891  -0.000534  -0.000401   0.000238   0.416276
     9  C    0.000000   0.442126  -0.007965  -0.008839  -0.011832   0.012584
    10  C    0.000000  -0.090261   0.006187   0.002260  -0.012598  -0.084329
    11  H   -0.000000  -0.010152   0.000096   0.000268   0.004291  -0.009480
    12  N    0.005071  -0.000004   0.000001   0.000000  -0.000000   0.000208
    13  N    0.000003   0.004440   0.000014  -0.000036  -0.000093  -0.073566
    14  B   -0.000320   0.000273  -0.000001   0.000006   0.000002  -0.002424
    15  F    0.000110   0.000000   0.000000  -0.000000  -0.000000  -0.002440
    16  F    0.000097   0.000000  -0.000000   0.000000  -0.000000  -0.001747
    17  C   -0.000000   0.000509   0.006896  -0.002734   0.000418   0.000006
    18  C   -0.000000  -0.003696   0.000444  -0.000321   0.000082  -0.000000
    19  C    0.000000  -0.002999  -0.003068   0.008970   0.000316   0.000000
    20  C   -0.000000  -0.000485   0.002767  -0.000027  -0.000032   0.000000
    21  H    0.000000  -0.000092   0.000105  -0.000016   0.000001  -0.000000
    22  C   -0.000000  -0.001259  -0.000843   0.000624   0.000012   0.000000
    23  H    0.000000  -0.001652   0.000101   0.000839   0.000021  -0.000000
    24  C   -0.000000  -0.000218   0.000342   0.000135  -0.000011  -0.000000
    25  H    0.000000  -0.000015   0.000041   0.000003  -0.000000  -0.000000
    26  H    0.000000   0.000032  -0.000020  -0.000039   0.000002  -0.000000
    27  N   -0.000000   0.000002  -0.000049  -0.000012   0.000000  -0.000000
    28  H    0.000000  -0.000001   0.000002  -0.000000  -0.000000  -0.000000
    29  H    0.000000  -0.000000   0.000001   0.000000  -0.000000  -0.000000
    30  C   -0.000013  -0.000002   0.000002   0.000000   0.000000  -0.000000
    31  H    0.000000   0.000002  -0.000002   0.000005  -0.000000  -0.000000
    32  H   -0.000000   0.000000   0.000005  -0.000001   0.000000   0.000000
    33  H    0.000001   0.000000  -0.000000   0.000000  -0.000000   0.000000
    34  C    0.379264  -0.000000  -0.000000   0.000000   0.000000   0.000025
    35  H   -0.016049  -0.000000  -0.000000   0.000000  -0.000000  -0.000009
    36  H   -0.015538  -0.000000   0.000000  -0.000000   0.000000  -0.000010
    37  H    0.594399  -0.000000  -0.000000  -0.000000   0.000000   0.000000
    38  C   -0.000000   4.522845   0.372998   0.371409   0.382335  -0.000218
    39  H   -0.000000   0.372998   0.615611  -0.020766  -0.020676   0.000010
    40  H   -0.000000   0.371409  -0.020766   0.604321  -0.018112   0.000008
    41  H    0.000000   0.382335  -0.020676  -0.018112   0.612913  -0.000014
    42  C    0.000000  -0.000218   0.000010   0.000008  -0.000014   4.572574
    43  H   -0.000000   0.000011   0.000000  -0.000002   0.000000   0.365815
    44  H   -0.000000   0.000009  -0.000001   0.000001  -0.000001   0.365657
    45  H   -0.000000  -0.000013   0.000000  -0.000000   0.000001   0.379256
              43         44         45
     1  C    0.000015  -0.000011   0.000001
     2  C   -0.000155  -0.000066  -0.000160
     3  C   -0.000031   0.000007   0.000008
     4  C    0.000001   0.000000   0.000000
     5  C    0.000000   0.000000   0.000000
     6  C   -0.000003   0.000005  -0.000000
     7  H   -0.000000  -0.000000  -0.000000
     8  C   -0.008083  -0.008166   0.000744
     9  C   -0.000347  -0.000356   0.000552
    10  C    0.004091   0.003349  -0.014570
    11  H    0.000136   0.000156   0.003339
    12  N    0.000094   0.000095   0.000003
    13  N   -0.003732  -0.003502   0.005070
    14  B    0.008378   0.007815  -0.000320
    15  F    0.008548  -0.001555   0.000092
    16  F   -0.001862   0.008652   0.000116
    17  C   -0.000001   0.000000  -0.000000
    18  C   -0.000000   0.000000   0.000000
    19  C    0.000000  -0.000000  -0.000000
    20  C    0.000000  -0.000000  -0.000000
    21  H    0.000000  -0.000000   0.000000
    22  C   -0.000000   0.000000  -0.000000
    23  H    0.000000  -0.000000   0.000000
    24  C    0.000000  -0.000000  -0.000000
    25  H   -0.000000   0.000000   0.000000
    26  H    0.000000  -0.000000   0.000000
    27  N   -0.000000   0.000000  -0.000000
    28  H    0.000000  -0.000000   0.000000
    29  H    0.000000   0.000000   0.000000
    30  C   -0.000000  -0.000000   0.000000
    31  H   -0.000000   0.000000  -0.000000
    32  H    0.000000  -0.000000  -0.000000
    33  H   -0.000000   0.000000   0.000000
    34  C   -0.000008  -0.000010   0.000000
    35  H   -0.000012   0.000039  -0.000000
    36  H    0.000039  -0.000014  -0.000000
    37  H   -0.000000  -0.000000  -0.000000
    38  C    0.000011   0.000009  -0.000013
    39  H    0.000000  -0.000001   0.000000
    40  H   -0.000002   0.000001  -0.000000
    41  H    0.000000  -0.000001   0.000001
    42  C    0.365815   0.365657   0.379256
    43  H    0.580142  -0.023943  -0.016114
    44  H   -0.023943   0.578936  -0.015482
    45  H   -0.016114  -0.015482   0.594401
 Mulliken charges:
               1
     1  C    0.087806
     2  C    0.087274
     3  C    0.005666
     4  C   -0.154175
     5  C   -0.118636
     6  C   -0.035506
     7  H    0.033785
     8  C   -0.035617
     9  C   -0.154517
    10  C   -0.118632
    11  H    0.033738
    12  N   -0.209929
    13  N   -0.209826
    14  B    0.212073
    15  F   -0.254039
    16  F   -0.254069
    17  C   -0.143527
    18  C   -0.008097
    19  C   -0.007981
    20  C   -0.085133
    21  H    0.033408
    22  C   -0.084911
    23  H    0.033357
    24  C    0.039583
    25  H    0.026769
    26  H    0.026807
    27  N   -0.165673
    28  H    0.162901
    29  H    0.162784
    30  C    0.081738
    31  H    0.055959
    32  H    0.065286
    33  H    0.053241
    34  C    0.052144
    35  H    0.087103
    36  H    0.088451
    37  H    0.063071
    38  C    0.081793
    39  H    0.056369
    40  H    0.065370
    41  H    0.053240
    42  C    0.052064
    43  H    0.087023
    44  H    0.088388
    45  H    0.063077
 Sum of Mulliken charges =  -0.00000
 Mulliken charges with hydrogens summed into heavy atoms:
               1
     1  C    0.087806
     2  C    0.087274
     3  C    0.005666
     4  C   -0.154175
     5  C   -0.084850
     6  C   -0.035506
     8  C   -0.035617
     9  C   -0.154517
    10  C   -0.084895
    12  N   -0.209929
    13  N   -0.209826
    14  B    0.212073
    15  F   -0.254039
    16  F   -0.254069
    17  C   -0.143527
    18  C    0.025311
    19  C    0.025376
    20  C   -0.058363
    22  C   -0.058104
    24  C    0.039583
    27  N    0.160011
    30  C    0.256223
    34  C    0.290769
    38  C    0.256772
    42  C    0.290551
 Electronic spatial extent (au):  <R**2>=           8434.4970
 Charge=              0.0000 electrons
 Dipole moment (field-independent basis, Debye):
    X=              7.7709    Y=             -1.0402    Z=             -0.2746  Tot=              7.8450
 Quadrupole moment (field-independent basis, Debye-Ang):
   XX=           -119.0514   YY=           -122.9438   ZZ=           -145.7543
   XY=             -6.9065   XZ=             -1.9875   YZ=             -2.4273
 Traceless Quadrupole moment (field-independent basis, Debye-Ang):
   XX=             10.1985   YY=              6.3060   ZZ=            -16.5045
   XY=             -6.9065   XZ=             -1.9875   YZ=             -2.4273
 Octapole moment (field-independent basis, Debye-Ang**2):
  XXX=            235.7374  YYY=             -1.2744  ZZZ=             -0.7715  XYY=            -70.0179
  XXY=            -45.2284  XXZ=            -12.9222  XZZ=             29.3167  YZZ=             -0.6161
  YYZ=              0.1651  XYZ=            -11.9952
 Hexadecapole moment (field-independent basis, Debye-Ang**3):
 XXXX=          -5375.1020 YYYY=          -3182.4141 ZZZZ=           -478.8926 XXXY=           -300.5983
 XXXZ=            -85.6220 YYYX=             -5.9950 YYYZ=             20.3995 ZZZX=             -4.7264
 ZZZY=            -17.9422 XXYY=          -1634.3255 XXZZ=          -1155.7451 YYZZ=           -732.5613
 XXYZ=            -57.7978 YYXZ=              1.3788 ZZXY=             -4.0570
 N-N= 2.216368902746D+03 E-N=-7.050688458967D+03  KE= 1.112458476019D+03
 1\1\GINC-X1002C7S7B0N1\SP\RM062X TD-FC\def2SVP\C19H20B1F2N3\XIAOGAN4\2
 6-Dec-2025\0\\# m062x/def2SVP TD=(NStates=5, Root=1) SCRF=(SMD, solven
 t=Ethanol, CorrectedLR) geom=check guess=read\\Step6 ES cLR m062x/def2
 SVP\\0,1\C,0,0.3860763525,1.2109004421,0.0479760951\C,0,0.3957974485,-
 1.2266451649,-0.0509288961\C,0,-0.3358941608,-0.0108870757,0.001854523
 5\C,0,-0.0758565664,2.5846138868,0.059156549\C,0,1.0698789454,3.367664
 9056,0.0980332151\C,0,2.2007081803,2.5150508071,0.0992061314\H,0,1.113
 2901961,4.4557914161,0.1127990829\C,0,2.2202152907,-2.5160990756,-0.12
 04833045\C,0,-0.0551610853,-2.6039341972,-0.0568062377\C,0,1.096410638
 3,-3.3778013291,-0.1069665034\H,0,1.1484355281,-4.4655486349,-0.121395
 0428\N,0,1.7785082013,1.2301373118,0.0662026932\N,0,1.7880054765,-1.23
 45925815,-0.0836687474\B,0,2.706578633,0.0017261806,-0.016603973\F,0,3
 .5141801078,0.0755538208,-1.1573299011\F,0,3.5345517049,-0.0647435604,
 1.1097613957\C,0,-1.8196741157,-0.0172755801,0.0036931029\C,0,-2.54338
 41309,0.2492393814,1.1738084057\C,0,-2.5414716898,-0.2872229007,-1.166
 8420865\C,0,-3.9335016985,0.2435948258,1.1809757801\H,0,-2.0047410443,
 0.463660583,2.1004098655\C,0,-3.9314902993,-0.2905843199,-1.1742214227
 \H,0,-2.0012703202,-0.4926847461,-2.0945703165\C,0,-4.658415973,-0.027
 5508488,0.0036378436\H,0,-4.47772097,0.4502704247,2.1053701305\H,0,-4.
 4742748654,-0.4978270193,-2.0993391239\N,0,-6.0332059914,-0.0817120319
 ,0.0140651382\H,0,-6.4971826763,0.0245158827,-0.8817076146\H,0,-6.4997
 09818,0.3995833017,0.775443371\C,0,-1.4805261406,3.0922198512,0.019773
 0739\H,0,-2.0720307371,2.6095418759,-0.7724409489\H,0,-2.0123402421,2.
 9101795817,0.9671427914\H,0,-1.4734482931,4.1759749125,-0.1601361998\C
 ,0,3.6355836254,2.8853035234,0.1184831612\H,0,4.1446075374,2.4253037,0
 .9811459677\H,0,4.1458084738,2.509153584,-0.783662363\H,0,3.7491940646
 ,3.9742106617,0.1690053542\C,0,-1.4553357592,-3.1223519359,-0.00187097
 74\H,0,-2.0420869765,-2.6426493657,0.7956634374\H,0,-1.9986364848,-2.9
 459329288,-0.943775496\H,0,-1.4381209439,-4.2056812861,0.1798790273\C,
 0,3.6578097663,-2.8746581566,-0.1546275831\H,0,4.1554638063,-2.4053055
 35,-1.0188522642\H,0,4.1730547439,-2.5001699384,0.7453739351\H,0,3.779
 6002615,-3.962306648,-0.2127950688\\Version=ES64L-G16RevA.03\State=1-A
 \HF=-1123.8256312\RMSD=3.390e-09\Dipole=-3.0584937,0.4070074,-0.079435
 5\Quadrupole=7.6128338,4.452122,-12.0649559,-5.1853097,1.1666454,2.628
 6331\PG=C01 [X(C19H20B1F2N3)]\\@


 LIFE IS SO UNCERTAIN - EAT DESSERT FIRST.
 Job cpu time:       0 days 14 hours 20 minutes 15.2 seconds.
 Elapsed time:       0 days  0 hours 13 minutes 37.8 seconds.
 File lengths (MBytes):  RWF=   1539 Int=      0 D2E=      0 Chk=     68 Scr=      1
 Normal termination of Gaussian 16 at Fri Dec 26 11:52:11 2025.
