 Entering Gaussian System, Link 0=g16
 Initial command:
 /home/users/ntu/xiaogan4/Softwares/g16/l1.exe "/scratch/users/ntu/xiaogan4/g16scratch/Gau-3577947.inp" -scrdir="/scratch/users/ntu/xiaogan4/g16scratch/"
 Entering Link 1 = /home/users/ntu/xiaogan4/Softwares/g16/l1.exe PID=   3577948.
  
 Copyright (c) 1988,1990,1992,1993,1995,1998,2003,2009,2016,
            Gaussian, Inc.  All Rights Reserved.
  
 This is part of the Gaussian(R) 16 program.  It is based on
 the Gaussian(R) 09 system (copyright 2009, Gaussian, Inc.),
 the Gaussian(R) 03 system (copyright 2003, Gaussian, Inc.),
 the Gaussian(R) 98 system (copyright 1998, Gaussian, Inc.),
 the Gaussian(R) 94 system (copyright 1995, Gaussian, Inc.),
 the Gaussian 92(TM) system (copyright 1992, Gaussian, Inc.),
 the Gaussian 90(TM) system (copyright 1990, Gaussian, Inc.),
 the Gaussian 88(TM) system (copyright 1988, Gaussian, Inc.),
 the Gaussian 86(TM) system (copyright 1986, Carnegie Mellon
 University), and the Gaussian 82(TM) system (copyright 1983,
 Carnegie Mellon University). Gaussian is a federally registered
 trademark of Gaussian, Inc.
  
 This software contains proprietary and confidential information,
 including trade secrets, belonging to Gaussian, Inc.
  
 This software is provided under written license and may be
 used, copied, transmitted, or stored only in accord with that
 written license.
  
 The following legend is applicable only to US Government
 contracts under FAR:
  
                    RESTRICTED RIGHTS LEGEND
  
 Use, reproduction and disclosure by the US Government is
 subject to restrictions as set forth in subparagraphs (a)
 and (c) of the Commercial Computer Software - Restricted
 Rights clause in FAR 52.227-19.
  
 Gaussian, Inc.
 340 Quinnipiac St., Bldg. 40, Wallingford CT 06492
  
  
 ---------------------------------------------------------------
 Warning -- This program may not be used in any manner that
 competes with the business of Gaussian, Inc. or will provide
 assistance to any competitor of Gaussian, Inc.  The licensee
 of this program is prohibited from giving any competitor of
 Gaussian, Inc. access to this program.  By using this program,
 the user acknowledges that Gaussian, Inc. is engaged in the
 business of creating and licensing software in the field of
 computational chemistry and represents and warrants to the
 licensee that it is not a competitor of Gaussian, Inc. and that
 it will not use this program in any manner prohibited above.
 ---------------------------------------------------------------
  

 Cite this work as:
 Gaussian 16, Revision A.03,
 M. J. Frisch, G. W. Trucks, H. B. Schlegel, G. E. Scuseria, 
 M. A. Robb, J. R. Cheeseman, G. Scalmani, V. Barone, 
 G. A. Petersson, H. Nakatsuji, X. Li, M. Caricato, A. V. Marenich, 
 J. Bloino, B. G. Janesko, R. Gomperts, B. Mennucci, H. P. Hratchian, 
 J. V. Ortiz, A. F. Izmaylov, J. L. Sonnenberg, D. Williams-Young, 
 F. Ding, F. Lipparini, F. Egidi, J. Goings, B. Peng, A. Petrone, 
 T. Henderson, D. Ranasinghe, V. G. Zakrzewski, J. Gao, N. Rega, 
 G. Zheng, W. Liang, M. Hada, M. Ehara, K. Toyota, R. Fukuda, 
 J. Hasegawa, M. Ishida, T. Nakajima, Y. Honda, O. Kitao, H. Nakai, 
 T. Vreven, K. Throssell, J. A. Montgomery, Jr., J. E. Peralta, 
 F. Ogliaro, M. J. Bearpark, J. J. Heyd, E. N. Brothers, K. N. Kudin, 
 V. N. Staroverov, T. A. Keith, R. Kobayashi, J. Normand, 
 K. Raghavachari, A. P. Rendell, J. C. Burant, S. S. Iyengar, 
 J. Tomasi, M. Cossi, J. M. Millam, M. Klene, C. Adamo, R. Cammi, 
 J. W. Ochterski, R. L. Martin, K. Morokuma, O. Farkas, 
 J. B. Foresman, and D. J. Fox, Gaussian, Inc., Wallingford CT, 2016.
 
 ******************************************
 Gaussian 16:  ES64L-G16RevA.03 25-Dec-2016
                26-Dec-2025 
 ******************************************
 %nprocshared=64
 Will use up to   64 processors via shared memory.
 %mem=128GB
 %oldchk=04BDP-NH2__m062x_def2SVP_dmso.chk
 %chk=06BDP-NH2__m062x_def2SVP_dmso.chk
 Copying data from "04BDP-NH2__m062x_def2SVP_dmso.chk" to current chk file "06BDP-NH2__m062x_def2SVP_dmso.chk"
 IOpt=  2 FromEx=T IUOpen= 4 IOptOp= 5 NList=   0 IFRang= 0 IUIn= 4 IUOut= 2.
 ----------------------------------------------------------------------
 # m062x/def2SVP TD=(NStates=5, Root=1) SCRF=(SMD, solvent=Ethanol, Cor
 rectedLR) geom=check guess=read
 ----------------------------------------------------------------------
 1/29=2,30=1,38=1,172=1/1;
 2/12=2,40=1/2;
 3/5=43,7=101,11=9,14=-4,25=1,30=1,70=32201,71=1,72=4,74=-55,116=-2/1,2,3,8;
 4/5=1/1;
 5/5=2,38=6,53=4/2;
 8/6=1,10=1,107=1,108=5/1;
 9/8=1,15=1,41=5,42=1,70=2,73=21/14;
 10/5=4,13=10,28=1,74=10/2;
 6/7=2,8=2,9=2,10=2,22=-1/1;
 99/5=1,9=1/99;
 --------------------------
 Step6 ES cLR m062x/def2SVP
 --------------------------
 Structure from the checkpoint file:  "06BDP-NH2__m062x_def2SVP_dmso.chk"
 Charge =  0 Multiplicity = 1
 Redundant internal coordinates found in file.  (old form).
 C,0,-0.8055351494,-1.2693330194,-0.1082776639
 C,0,-0.7192917656,1.1663541427,-0.0095309321
 C,0,-0.039003264,-0.074086031,-0.1314283579
 C,0,-0.3954090782,-2.6582115394,-0.1660832257
 C,0,-1.566347177,-3.4006519514,-0.0949975367
 C,0,-2.6614664558,-2.5094690232,0.014223025
 H,0,-1.6493454342,-4.4865273177,-0.1069693759
 C,0,-2.4821001374,2.5187448548,0.2360901759
 C,0,-0.2229382007,2.5271835635,-0.0549449446
 C,0,-1.3363392103,3.340861976,0.1060777677
 H,0,-1.3491021977,4.4297898052,0.1201344062
 N,0,-2.193171826,-1.2399870993,0.0089519067
 N,0,-2.1002398273,1.2230256619,0.1619799651
 B,0,-3.0631004356,0.0192273161,0.1967051586
 F,0,-4.0091424198,0.1203262313,-0.8289495015
 F,0,-3.7404047405,-0.0319804813,1.4212395931
 C,0,1.4366735695,-0.12080108,-0.2758252851
 C,0,2.2780931492,0.1327382384,0.816820234
 C,0,2.035930363,-0.416958208,-1.5079782355
 C,0,3.6607843414,0.085408052,0.6914995265
 H,0,1.8377151393,0.3707591255,1.7886414926
 C,0,3.4179334359,-0.4629202991,-1.6496343085
 H,0,1.4032732588,-0.6105865965,-2.378192459
 C,0,4.2646849863,-0.2187763031,-0.5480436721
 H,0,4.3056067999,0.289857988,1.5482276294
 H,0,3.8622202446,-0.6915561005,-2.6211239798
 N,0,5.6262170133,-0.3084596204,-0.6554117251
 H,0,6.0254538665,-0.2641926194,-1.5855731647
 H,0,6.1765779754,0.1091148865,0.0947931346
 O,0,6.8316870685,0.893539784,1.7882861089
 H,0,6.6001612518,0.3228855341,2.53432714
 H,0,6.3270539902,1.7011632081,1.9588198093
 C,0,0.9872788624,-3.2158586658,-0.2641175754
 H,0,1.4291162245,-3.0521985908,-1.259810604
 H,0,1.6714662452,-2.7555861745,0.4641903142
 H,0,0.9588196263,-4.2988954886,-0.0817988401
 C,0,-4.1038474257,-2.8312850719,0.1262276363
 H,0,-4.532927478,-2.3826847738,1.0368730672
 H,0,-4.6647312146,-2.4114629376,-0.7252345612
 H,0,-4.2516127543,-3.9170488096,0.1519268423
 C,0,1.1815129311,2.9969161343,-0.2525673762
 H,0,1.8100527067,2.8043583807,0.6313265474
 H,0,1.6687360509,2.4951230556,-1.1018047802
 H,0,1.1829527176,4.0797289303,-0.438170477
 C,0,-3.8964357913,2.9277864001,0.4062630931
 H,0,-4.4999401248,2.6094596939,-0.4601349977
 H,0,-4.3382455888,2.4429302648,1.291614782
 H,0,-3.969415911,4.0162689947,0.5123192938
 Recover connectivity data from disk.
                           ----------------------------
                           !    Current Parameters    !
                           ! (Angstroms and Degrees)  !
 --------------------------                            --------------------------
 ! Name  Definition              Value                                          !
 --------------------------------------------------------------------------------
 ! R1    R(1,3)                  1.4201                                         !
 ! R2    R(1,4)                  1.4493                                         !
 ! R3    R(1,12)                 1.3929                                         !
 ! R4    R(2,3)                  1.42                                           !
 ! R5    R(2,9)                  1.4492                                         !
 ! R6    R(2,13)                 1.3927                                         !
 ! R7    R(3,17)                 1.4835                                         !
 ! R8    R(4,5)                  1.3883                                         !
 ! R9    R(4,33)                 1.4941                                         !
 ! R10   R(5,6)                  1.4161                                         !
 ! R11   R(5,7)                  1.0891                                         !
 ! R12   R(6,12)                 1.3531                                         !
 ! R13   R(6,37)                 1.4821                                         !
 ! R14   R(8,10)                 1.4162                                         !
 ! R15   R(8,13)                 1.3528                                         !
 ! R16   R(8,45)                 1.4821                                         !
 ! R17   R(9,10)                 1.3884                                         !
 ! R18   R(9,41)                 1.4941                                         !
 ! R19   R(10,11)                1.0891                                         !
 ! R20   R(12,14)                1.542                                          !
 ! R21   R(13,14)                1.5419                                         !
 ! R22   R(14,15)                1.399                                          !
 ! R23   R(14,16)                1.4003                                         !
 ! R24   R(17,18)                1.4022                                         !
 ! R25   R(17,19)                1.4018                                         !
 ! R26   R(18,20)                1.3892                                         !
 ! R27   R(18,21)                1.0932                                         !
 ! R28   R(19,22)                1.39                                           !
 ! R29   R(19,23)                1.0932                                         !
 ! R30   R(20,24)                1.412                                          !
 ! R31   R(20,25)                1.0916                                         !
 ! R32   R(22,24)                1.4107                                         !
 ! R33   R(22,26)                1.0925                                         !
 ! R34   R(24,27)                1.3687                                         !
 ! R35   R(27,28)                1.0132                                         !
 ! R36   R(27,29)                1.0198                                         !
 ! R37   R(29,30)                1.978                                          !
 ! R38   R(30,31)                0.9674                                         !
 ! R39   R(30,32)                0.9675                                         !
 ! R40   R(33,34)                1.1015                                         !
 ! R41   R(33,35)                1.1002                                         !
 ! R42   R(33,36)                1.0986                                         !
 ! R43   R(37,38)                1.1021                                         !
 ! R44   R(37,39)                1.1026                                         !
 ! R45   R(37,40)                1.0961                                         !
 ! R46   R(41,42)                1.1015                                         !
 ! R47   R(41,43)                1.1002                                         !
 ! R48   R(41,44)                1.0986                                         !
 ! R49   R(45,46)                1.1028                                         !
 ! R50   R(45,47)                1.1019                                         !
 ! R51   R(45,48)                1.0961                                         !
 ! A1    A(3,1,4)              130.7805                                         !
 ! A2    A(3,1,12)             121.4244                                         !
 ! A3    A(4,1,12)             107.7857                                         !
 ! A4    A(3,2,9)              130.806                                          !
 ! A5    A(3,2,13)             121.4097                                         !
 ! A6    A(9,2,13)             107.7732                                         !
 ! A7    A(1,3,2)              118.3753                                         !
 ! A8    A(1,3,17)             120.7984                                         !
 ! A9    A(2,3,17)             120.8261                                         !
 ! A10   A(1,4,5)              105.7694                                         !
 ! A11   A(1,4,33)             128.4734                                         !
 ! A12   A(5,4,33)             125.753                                          !
 ! A13   A(4,5,6)              108.6417                                         !
 ! A14   A(4,5,7)              126.649                                          !
 ! A15   A(6,5,7)              124.7053                                         !
 ! A16   A(5,6,12)             108.8129                                         !
 ! A17   A(5,6,37)             128.4466                                         !
 ! A18   A(12,6,37)            122.74                                           !
 ! A19   A(10,8,13)            108.8208                                         !
 ! A20   A(10,8,45)            128.4907                                         !
 ! A21   A(13,8,45)            122.6824                                         !
 ! A22   A(2,9,10)             105.7841                                         !
 ! A23   A(2,9,41)             128.4127                                         !
 ! A24   A(10,9,41)            125.7974                                         !
 ! A25   A(8,10,9)             108.6167                                         !
 ! A26   A(8,10,11)            124.7339                                         !
 ! A27   A(9,10,11)            126.6453                                         !
 ! A28   A(1,12,6)             108.9864                                         !
 ! A29   A(1,12,14)            126.1212                                         !
 ! A30   A(6,12,14)            124.7804                                         !
 ! A31   A(2,13,8)             109.0019                                         !
 ! A32   A(2,13,14)            126.1709                                         !
 ! A33   A(8,13,14)            124.7684                                         !
 ! A34   A(12,14,13)           106.4106                                         !
 ! A35   A(12,14,15)           110.564                                          !
 ! A36   A(12,14,16)           110.4564                                         !
 ! A37   A(13,14,15)           110.4477                                         !
 ! A38   A(13,14,16)           110.505                                          !
 ! A39   A(15,14,16)           108.4619                                         !
 ! A40   A(3,17,18)            121.023                                          !
 ! A41   A(3,17,19)            121.1622                                         !
 ! A42   A(18,17,19)           117.8147                                         !
 ! A43   A(17,18,20)           121.3872                                         !
 ! A44   A(17,18,21)           119.3651                                         !
 ! A45   A(20,18,21)           119.2476                                         !
 ! A46   A(17,19,22)           121.4394                                         !
 ! A47   A(17,19,23)           119.3227                                         !
 ! A48   A(22,19,23)           119.237                                          !
 ! A49   A(18,20,24)           120.8131                                         !
 ! A50   A(18,20,25)           120.7157                                         !
 ! A51   A(24,20,25)           118.4697                                         !
 ! A52   A(19,22,24)           120.7621                                         !
 ! A53   A(19,22,26)           120.1253                                         !
 ! A54   A(24,22,26)           119.1126                                         !
 ! A55   A(20,24,22)           117.7801                                         !
 ! A56   A(20,24,27)           120.5599                                         !
 ! A57   A(22,24,27)           121.6341                                         !
 ! A58   A(24,27,28)           117.4601                                         !
 ! A59   A(24,27,29)           116.891                                          !
 ! A60   A(28,27,29)           116.4103                                         !
 ! A61   A(27,29,30)           166.1494                                         !
 ! A62   A(29,30,31)           110.3082                                         !
 ! A63   A(29,30,32)           108.0121                                         !
 ! A64   A(31,30,32)           103.3948                                         !
 ! A65   A(4,33,34)            112.0272                                         !
 ! A66   A(4,33,35)            112.0815                                         !
 ! A67   A(4,33,36)            109.4549                                         !
 ! A68   A(34,33,35)           106.665                                          !
 ! A69   A(34,33,36)           107.8697                                         !
 ! A70   A(35,33,36)           108.5826                                         !
 ! A71   A(6,37,38)            110.6684                                         !
 ! A72   A(6,37,39)            110.733                                          !
 ! A73   A(6,37,40)            110.3692                                         !
 ! A74   A(38,37,39)           106.561                                          !
 ! A75   A(38,37,40)           109.3509                                         !
 ! A76   A(39,37,40)           109.0679                                         !
 ! A77   A(9,41,42)            112.0417                                         !
 ! A78   A(9,41,43)            112.0246                                         !
 ! A79   A(9,41,44)            109.479                                          !
 ! A80   A(42,41,43)           106.6764                                         !
 ! A81   A(42,41,44)           107.8851                                         !
 ! A82   A(43,41,44)           108.5756                                         !
 ! A83   A(8,45,46)            110.6312                                         !
 ! A84   A(8,45,47)            110.6981                                         !
 ! A85   A(8,45,48)            110.4094                                         !
 ! A86   A(46,45,47)           106.5475                                         !
 ! A87   A(46,45,48)           109.0402                                         !
 ! A88   A(47,45,48)           109.4229                                         !
 ! D1    D(4,1,3,2)           -177.7199                                         !
 ! D2    D(4,1,3,17)             2.1204                                         !
 ! D3    D(12,1,3,2)             1.0193                                         !
 ! D4    D(12,1,3,17)         -179.1403                                         !
 ! D5    D(3,1,4,5)            179.5096                                         !
 ! D6    D(3,1,4,33)             0.2194                                         !
 ! D7    D(12,1,4,5)             0.6394                                         !
 ! D8    D(12,1,4,33)         -178.6508                                         !
 ! D9    D(3,1,12,6)          -179.5697                                         !
 ! D10   D(3,1,12,14)           -3.2841                                         !
 ! D11   D(4,1,12,6)            -0.5722                                         !
 ! D12   D(4,1,12,14)          175.7134                                         !
 ! D13   D(9,2,3,1)           -177.0767                                         !
 ! D14   D(9,2,3,17)             3.083                                          !
 ! D15   D(13,2,3,1)             1.5563                                         !
 ! D16   D(13,2,3,17)         -178.284                                          !
 ! D17   D(3,2,9,10)           179.3586                                         !
 ! D18   D(3,2,9,41)             0.2025                                         !
 ! D19   D(13,2,9,10)            0.5837                                         !
 ! D20   D(13,2,9,41)         -178.5724                                         !
 ! D21   D(3,2,13,8)          -179.4309                                         !
 ! D22   D(3,2,13,14)           -2.1241                                         !
 ! D23   D(9,2,13,8)            -0.5174                                         !
 ! D24   D(9,2,13,14)          176.7894                                         !
 ! D25   D(1,3,17,18)         -105.7248                                         !
 ! D26   D(1,3,17,19)           74.3978                                         !
 ! D27   D(2,3,17,18)           74.1116                                         !
 ! D28   D(2,3,17,19)         -105.7657                                         !
 ! D29   D(1,4,5,6)             -0.4724                                         !
 ! D30   D(1,4,5,7)           -179.764                                          !
 ! D31   D(33,4,5,6)           178.8429                                         !
 ! D32   D(33,4,5,7)            -0.4487                                         !
 ! D33   D(1,4,33,34)          -71.8432                                         !
 ! D34   D(1,4,33,35)           48.0228                                         !
 ! D35   D(1,4,33,36)          168.5549                                         !
 ! D36   D(5,4,33,34)          108.9984                                         !
 ! D37   D(5,4,33,35)         -131.1355                                         !
 ! D38   D(5,4,33,36)          -10.6035                                         !
 ! D39   D(4,5,6,12)             0.1363                                         !
 ! D40   D(4,5,6,37)          -179.5837                                         !
 ! D41   D(7,5,6,12)           179.4449                                         !
 ! D42   D(7,5,6,37)            -0.275                                          !
 ! D43   D(5,6,12,1)             0.2794                                         !
 ! D44   D(5,6,12,14)         -176.0677                                         !
 ! D45   D(37,6,12,1)         -179.9814                                         !
 ! D46   D(37,6,12,14)           3.6715                                         !
 ! D47   D(5,6,37,38)          123.2233                                         !
 ! D48   D(5,6,37,39)         -118.8376                                         !
 ! D49   D(5,6,37,40)            2.0364                                         !
 ! D50   D(12,6,37,38)         -56.4615                                         !
 ! D51   D(12,6,37,39)          61.4776                                         !
 ! D52   D(12,6,37,40)        -177.6484                                         !
 ! D53   D(13,8,10,9)            0.1323                                         !
 ! D54   D(13,8,10,11)         179.4335                                         !
 ! D55   D(45,8,10,9)         -178.9745                                         !
 ! D56   D(45,8,10,11)           0.3267                                         !
 ! D57   D(10,8,13,2)            0.2472                                         !
 ! D58   D(10,8,13,14)        -177.1062                                         !
 ! D59   D(45,8,13,2)          179.4166                                         !
 ! D60   D(45,8,13,14)           2.0631                                         !
 ! D61   D(10,8,45,46)         115.8068                                         !
 ! D62   D(10,8,45,47)        -126.3161                                         !
 ! D63   D(10,8,45,48)          -4.992                                          !
 ! D64   D(13,8,45,46)         -63.1886                                         !
 ! D65   D(13,8,45,47)          54.6885                                         !
 ! D66   D(13,8,45,48)         176.0125                                         !
 ! D67   D(2,9,10,8)            -0.4359                                         !
 ! D68   D(2,9,10,11)         -179.7201                                         !
 ! D69   D(41,9,10,8)          178.7489                                         !
 ! D70   D(41,9,10,11)          -0.5354                                         !
 ! D71   D(2,9,41,42)          -71.7844                                         !
 ! D72   D(2,9,41,43)           48.0666                                         !
 ! D73   D(2,9,41,44)          168.5692                                         !
 ! D74   D(10,9,41,42)         109.2168                                         !
 ! D75   D(10,9,41,43)        -130.9322                                         !
 ! D76   D(10,9,41,44)         -10.4295                                         !
 ! D77   D(1,12,14,13)           2.5423                                         !
 ! D78   D(1,12,14,15)         122.5069                                         !
 ! D79   D(1,12,14,16)        -117.4314                                         !
 ! D80   D(6,12,14,13)         178.2651                                         !
 ! D81   D(6,12,14,15)         -61.7703                                         !
 ! D82   D(6,12,14,16)          58.2913                                         !
 ! D83   D(2,13,14,12)           0.1457                                         !
 ! D84   D(2,13,14,15)        -119.8942                                         !
 ! D85   D(2,13,14,16)         120.0881                                         !
 ! D86   D(8,13,14,12)         177.0455                                         !
 ! D87   D(8,13,14,15)          57.0055                                         !
 ! D88   D(8,13,14,16)         -63.0122                                         !
 ! D89   D(3,17,18,20)         179.7209                                         !
 ! D90   D(3,17,18,21)          -0.1534                                         !
 ! D91   D(19,17,18,20)         -0.3977                                         !
 ! D92   D(19,17,18,21)        179.7279                                         !
 ! D93   D(3,17,19,22)        -179.9673                                         !
 ! D94   D(3,17,19,23)           0.381                                          !
 ! D95   D(18,17,19,22)          0.1515                                         !
 ! D96   D(18,17,19,23)       -179.5001                                         !
 ! D97   D(17,18,20,24)          0.1226                                         !
 ! D98   D(17,18,20,25)        179.6754                                         !
 ! D99   D(21,18,20,24)        179.9971                                         !
 ! D100  D(21,18,20,25)         -0.45                                           !
 ! D101  D(17,19,22,24)          0.372                                          !
 ! D102  D(17,19,22,26)       -179.7278                                         !
 ! D103  D(23,19,22,24)       -179.976                                          !
 ! D104  D(23,19,22,26)         -0.0758                                         !
 ! D105  D(18,20,24,22)          0.3944                                         !
 ! D106  D(18,20,24,27)       -177.7815                                         !
 ! D107  D(25,20,24,22)       -179.1683                                         !
 ! D108  D(25,20,24,27)          2.6558                                         !
 ! D109  D(19,22,24,20)         -0.6373                                         !
 ! D110  D(19,22,24,27)        177.5179                                         !
 ! D111  D(26,22,24,20)        179.4615                                         !
 ! D112  D(26,22,24,27)         -2.3833                                         !
 ! D113  D(20,24,27,28)       -162.9754                                         !
 ! D114  D(20,24,27,29)        -17.3267                                         !
 ! D115  D(22,24,27,28)         18.92                                           !
 ! D116  D(22,24,27,29)        164.5688                                         !
 ! D117  D(24,27,29,30)         18.2                                            !
 ! D118  D(28,27,29,30)        164.2109                                         !
 ! D119  D(27,29,30,31)         51.3018                                         !
 ! D120  D(27,29,30,32)        -61.0366                                         !
 ! D121  D(29,30,31,32)       -115.2812                                         !
 --------------------------------------------------------------------------------
                          Input orientation:                          
 ---------------------------------------------------------------------
 Center     Atomic      Atomic             Coordinates (Angstroms)
 Number     Number       Type             X           Y           Z
 ---------------------------------------------------------------------
      1          6           0       -0.805535   -1.269333   -0.108278
      2          6           0       -0.719292    1.166354   -0.009531
      3          6           0       -0.039003   -0.074086   -0.131428
      4          6           0       -0.395409   -2.658212   -0.166083
      5          6           0       -1.566347   -3.400652   -0.094998
      6          6           0       -2.661466   -2.509469    0.014223
      7          1           0       -1.649345   -4.486527   -0.106969
      8          6           0       -2.482100    2.518745    0.236090
      9          6           0       -0.222938    2.527184   -0.054945
     10          6           0       -1.336339    3.340862    0.106078
     11          1           0       -1.349102    4.429790    0.120134
     12          7           0       -2.193172   -1.239987    0.008952
     13          7           0       -2.100240    1.223026    0.161980
     14          5           0       -3.063100    0.019227    0.196705
     15          9           0       -4.009142    0.120326   -0.828950
     16          9           0       -3.740405   -0.031980    1.421240
     17          6           0        1.436674   -0.120801   -0.275825
     18          6           0        2.278093    0.132738    0.816820
     19          6           0        2.035930   -0.416958   -1.507978
     20          6           0        3.660784    0.085408    0.691500
     21          1           0        1.837715    0.370759    1.788641
     22          6           0        3.417933   -0.462920   -1.649634
     23          1           0        1.403273   -0.610587   -2.378192
     24          6           0        4.264685   -0.218776   -0.548044
     25          1           0        4.305607    0.289858    1.548228
     26          1           0        3.862220   -0.691556   -2.621124
     27          7           0        5.626217   -0.308460   -0.655412
     28          1           0        6.025454   -0.264193   -1.585573
     29          1           0        6.176578    0.109115    0.094793
     30          8           0        6.831687    0.893540    1.788286
     31          1           0        6.600161    0.322886    2.534327
     32          1           0        6.327054    1.701163    1.958820
     33          6           0        0.987279   -3.215859   -0.264118
     34          1           0        1.429116   -3.052199   -1.259811
     35          1           0        1.671466   -2.755586    0.464190
     36          1           0        0.958820   -4.298895   -0.081799
     37          6           0       -4.103847   -2.831285    0.126228
     38          1           0       -4.532927   -2.382685    1.036873
     39          1           0       -4.664731   -2.411463   -0.725235
     40          1           0       -4.251613   -3.917049    0.151927
     41          6           0        1.181513    2.996916   -0.252567
     42          1           0        1.810053    2.804358    0.631327
     43          1           0        1.668736    2.495123   -1.101805
     44          1           0        1.182953    4.079729   -0.438170
     45          6           0       -3.896436    2.927786    0.406263
     46          1           0       -4.499940    2.609460   -0.460135
     47          1           0       -4.338246    2.442930    1.291615
     48          1           0       -3.969416    4.016269    0.512319
 ---------------------------------------------------------------------
                    Distance matrix (angstroms):
                    1          2          3          4          5
     1  C    0.000000
     2  C    2.439213   0.000000
     3  C    1.420114   1.419980   0.000000
     4  C    1.449320   3.841447   2.608818   0.000000
     5  C    2.263080   4.645681   3.660621   1.388296   0.000000
     6  C    2.235492   4.157437   3.581846   2.278080   1.416129
     7  H    3.326012   5.729709   4.697173   2.217789   1.089109
     8  C    4.156801   2.235349   3.581419   5.596151   5.998957
     9  C    3.841328   1.449236   2.608886   5.189453   6.078288
    10  C    4.645600   2.263316   3.660787   6.078512   6.748433
    11  H    5.729541   3.326182   4.697291   7.157598   7.836408
    12  N    1.392889   2.821904   2.453462   2.296508   2.252152
    13  N    2.821551   1.392711   2.453015   4.251832   4.661488
    14  B    2.617251   2.617608   3.043278   3.796956   3.744454
    15  F    3.565616   3.548061   4.035633   4.606380   4.347784
    16  F    3.533260   3.551089   4.014091   4.539348   4.286426
    17  C    2.524816   2.525048   1.483460   3.131617   4.450646
    18  C    3.511463   3.276513   2.512148   3.987871   5.300564
    19  C    3.280188   3.513328   2.513524   3.568657   4.886241
    20  C    4.735291   4.565628   3.793557   4.971479   6.331990
    21  H    3.643484   3.225629   2.721512   4.240573   5.418420
    22  C    4.567687   4.739315   3.795596   4.643469   5.990844
    23  H    3.235011   3.643262   2.723223   3.510193   4.670770
    24  C    5.196556   5.200827   4.326227   5.273824   6.658117
    25  H    5.594538   5.333335   4.672188   5.807713   7.127405
    26  H    5.332557   5.591288   4.668983   5.293616   6.571899
    27  N    6.526107   6.546581   5.694226   6.482342   7.849121
    28  H    7.060816   7.072621   6.239256   6.998125   8.348331
    29  H    7.119779   6.977224   6.222394   7.135627   8.503374
    30  O    8.161013   7.766843   7.199166   8.286460   9.618410
    31  H    8.022647   7.794681   7.165357   8.069520   9.352537
    32  H    7.998160   7.335626   6.931618   8.289202   9.620419
    33  C    2.650930   4.709669   3.307808   1.494124   2.565883
    34  H    3.081932   4.896432   3.506818   2.163413   3.232802
    35  H    2.944861   4.617548   3.235879   2.163030   3.348468
    36  H    3.505980   5.717537   4.341328   2.129057   2.680202
    37  C    3.656987   5.239730   4.918485   3.723965   2.609986
    38  H    4.055167   5.313610   5.185548   4.317647   3.334365
    39  H    4.071669   5.373965   5.216636   4.312847   3.312956
    40  H    4.353568   6.192281   5.709180   4.068920   2.745594
    41  C    4.708509   2.650110   3.306870   5.871510   6.964513
    42  H    4.897272   3.080802   3.505174   5.944711   7.101393
    43  H    4.613051   2.943020   3.234013   5.629665   6.799970
    44  H    5.716238   3.505712   4.340673   6.925684   7.976999
    45  C    5.237770   3.656470   4.917330   6.617261   6.762374
    46  H    5.368190   4.071719   5.216265   6.684460   6.697816
    47  H    5.312310   4.052092   5.181111   6.610030   6.614648
    48  H    6.191355   4.354038   5.709077   7.601477   7.820121
                    6          7          8          9         10
     6  C    0.000000
     7  H    2.224373   0.000000
     8  C    5.036301   7.062932   0.000000
     9  C    5.596345   7.157478   2.277847   0.000000
    10  C    5.999231   7.836542   1.416174   1.388403   0.000000
    11  H    7.063061   8.924261   2.224685   2.217839   1.089093
    12  N    1.353112   3.293814   3.776657   4.251762   4.661306
    13  N    3.777344   5.733641   1.352848   2.296115   2.252088
    14  B    2.566888   4.732097   2.566457   3.797327   3.744753
    15  F    3.072945   5.226184   3.036211   4.552734   4.288357
    16  F    3.046597   5.152760   3.081251   4.593584   4.345716
    17  C    4.752327   5.348980   4.752478   3.132878   4.451804
    18  C    5.659034   6.133170   5.356278   3.570504   4.884806
    19  C    5.362950   5.666169   5.663279   3.985193   5.300810
    20  C    6.867528   7.052491   6.622957   4.647876   5.992657
    21  H    5.629113   6.272652   5.068043   3.506461   4.661239
    22  C    6.626906   6.651808   6.874349   4.973902   6.336749
    23  H    5.084439   5.431377   5.632345   4.229379   5.412118
    24  C    7.316761   7.306436   7.323114   5.284146   6.668611
    25  H    7.663518   7.811209   7.263787   5.299387   6.574190
    26  H    7.266935   7.148436   7.662905   5.799490   7.122011
    27  N    8.601078   8.407785   8.633230   6.527944   7.897759
    28  H    9.113901   8.883520   9.134641   7.012632   8.369833
    29  H    9.218162   9.077759   8.988826   6.842754   8.178523
    30  O   10.239518  10.220813   9.581087   7.472217   8.691137
    31  H   10.007542   9.907636   9.622430   7.623513   8.831343
    32  H   10.114563  10.304268   9.013181   6.902170   8.052879
    33  C    3.726902   2.931055   6.721047   5.872896   6.966120
    34  H    4.318632   3.586540   6.969271   5.942263   7.098212
    35  H    4.363181   3.788162   6.717344   5.636127   6.807483
    36  H    4.039522   2.615027   7.643376   6.927671   7.979282
    37  C    1.482084   2.969644   5.591507   6.618721   6.764237
    38  H    2.136411   3.748276   5.373189   6.623812   6.621446
    39  H    2.137632   3.712236   5.476767   6.676005   6.697650
    40  H    2.128100   2.676402   6.675155   7.602706   7.821649
    41  C    6.720115   8.002305   3.726861   1.494050   2.566419
    42  H    6.972235   8.103674   4.319764   2.163526   3.234734
    43  H    6.711342   7.793767   4.361188   2.162262   3.347347
    44  H    7.642104   9.028419   4.040286   2.129269   2.681224
    45  C    5.589507   7.764333   1.482100   3.723947   2.610524
    46  H    5.459710   7.655302   2.136501   4.296940   3.296046
    47  H    5.382339   7.563306   2.136623   4.330829   3.350108
    48  H    6.674136   8.835372   2.128612   4.071272   2.748509
                   11         12         13         14         15
    11  H    0.000000
    12  N    5.733340   0.000000
    13  N    3.293827   2.469511   0.000000
    14  B    4.732517   1.541962   1.541894   0.000000
    15  F    5.152480   2.418735   2.416981   1.398994   0.000000
    16  F    5.226719   2.418215   2.418867   1.400303   2.271292
    17  C    5.350253   3.809128   3.808845   4.526683   5.479142
    18  C    5.666266   4.746497   4.559314   5.378269   6.499080
    19  C    6.131897   4.567686   4.752495   5.394100   6.106772
    20  C    6.655755   6.040807   5.896097   6.742390   7.819256
    21  H    5.423601   4.691465   4.345098   5.164865   6.410947
    22  C    7.056580   5.902478   6.047693   6.756126   7.495009
    23  H    6.262795   4.362227   4.699916   5.193771   5.677027
    24  C    7.319169   6.561786   6.564693   7.369378   8.285537
    25  H    7.152218   6.851563   6.620223   7.496513   8.649553
    26  H    7.803881   6.624640   6.852899   7.510356   8.113531
    27  N    8.468032   7.902656   7.919073   8.737146   9.646457
    28  H    8.906570   8.428552   8.443498   9.265995  10.070425
    29  H    8.677830   8.478217   8.351708   9.240678  10.227528
    30  O    9.067144   9.442777   9.084754  10.060038  11.179059
    31  H    9.267458   9.281314   9.062851   9.946623  11.131486
    32  H    8.351619   9.222071   8.629979   9.700977  10.821629
    33  C    8.003891   3.754185   5.423839   5.204201   6.034351
    34  H    8.099561   4.244389   5.723232   5.633392   6.310722
    35  H    7.802041   4.176088   5.490578   5.494293   6.497107
    36  H    9.030904   4.393200   6.317348   5.907587   6.690919
    37  C    7.766072   2.489310   4.522517   3.035382   3.103763
    38  H    7.575418   2.799435   4.436728   2.938615   3.165550
    39  H    7.649234   2.831959   4.535777   3.053432   2.617348
    40  H    8.837154   3.379982   5.572151   4.112036   4.161887
    41  C    2.931902   5.422936   3.753457   5.204346   5.962373
    42  H    3.589374   5.724499   4.243971   5.629696   6.572630
    43  H    3.787271   5.486270   4.173795   5.496041   6.160553
    44  H    2.616400   6.316448   4.393209   5.909290   6.541210
    45  C    2.970992   4.519878   2.488414   3.032833   3.069248
    46  H    3.684847   4.512146   2.840385   3.034016   2.563726
    47  H    3.775574   4.450893   2.787994   2.949434   3.162213
    48  H    2.681576   5.571055   3.379166   4.110640   4.120552
                   16         17         18         19         20
    16  F    0.000000
    17  C    5.448858   0.000000
    18  C    6.051014   1.402192   0.000000
    19  C    6.488033   1.401791   2.401145   0.000000
    20  C    7.438004   2.434113   1.389165   2.780328   0.000000
    21  H    5.604695   2.159743   1.093171   3.395216   2.146795
    22  C    7.801140   2.435115   2.781626   1.390004   2.416723
    23  H    6.420895   2.158924   3.394989   1.093170   3.873471
    24  C    8.245874   2.842772   2.435767   2.434768   1.411981
    25  H    8.053447   3.424411   2.161124   3.871875   1.091595
    26  H    8.635719   3.421909   3.874065   2.156347   3.408478
    27  N    9.598048   4.210888   3.684027   3.691720   2.415000
    28  H   10.220902   4.774192   4.468978   3.993201   3.301355
    29  H   10.006294   4.759928   3.964854   4.471084   2.585699
    30  O   10.618872   5.864777   4.717815   5.965069   3.451180
    31  H   10.406354   5.895373   4.654703   6.141645   3.477405
    32  H   10.229687   5.677060   4.489789   5.909219   3.365377
    33  C    5.943778   3.127535   3.748030   3.237391   4.354216
    34  H    6.560007   3.092147   3.895764   2.715567   4.316541
    35  H    6.133704   2.746788   2.972333   3.080822   3.475673
    36  H    6.522913   4.209806   4.710348   4.273592   5.207756
    37  C    3.105681   6.181079   7.070468   6.796799   8.313612
    38  H    2.510307   6.517318   7.264006   7.313702   8.564326
    39  H    3.335216   6.532705   7.553390   7.034885   8.806572
    40  H    4.119010   6.852085   7.712322   7.385060   8.883514
    41  C    6.016736   3.128228   3.248014   3.736392   3.938899
    42  H    6.283021   3.085271   2.718644   3.873568   3.289608
    43  H    6.481575   2.753026   3.103756   2.963111   3.604292
    44  H    6.678548   4.211316   4.284048   4.700240   4.834294
    45  C    3.132849   6.180711   6.790115   7.074221   8.079112
    46  H    3.330716   6.536947   7.328472   7.278378   8.619427
    47  H    2.549392   6.509937   7.024127   7.526407   8.360773
    48  H    4.155347   6.852906   7.362466   7.733000   8.585088
                   21         22         23         24         25
    21  H    0.000000
    22  C    3.874771   0.000000
    23  H    4.302823   2.147431   0.000000
    24  C    3.420209   1.410708   3.419157   0.000000
    25  H    2.480894   3.403081   4.964989   2.157484   0.000000
    26  H    4.967209   1.092455   2.472244   2.164061   4.306188
    27  N    4.559329   2.426696   4.570832   1.368700   2.637806
    28  H    5.415316   2.615867   4.702424   2.044220   3.617396
    29  H    4.665116   3.313664   5.423842   2.043548   2.376063
    30  O    5.021260   5.031202   7.006398   3.644885   2.608283
    31  H    4.820709   5.315035   7.211925   3.904978   2.497692
    32  H    4.685413   5.115387   6.956830   3.771458   2.499323
    33  C    4.219110   3.925100   3.380800   4.450226   5.156156
    34  H    4.601810   3.288118   2.685687   4.071283   5.227678
    35  H    3.399389   3.574174   3.571007   3.766272   4.169960
    36  H    5.106533   4.818719   4.367446   5.271954   5.908860
    37  C    6.951178   8.083318   6.444533   8.792734   9.081990
    38  H    6.980809   8.609240   7.074001   9.197415   9.247900
    39  H    7.506140   8.365453   6.541873   9.196398   9.640162
    40  H    7.625224   8.602242   7.022246   9.310988   9.637102
    41  C    3.390256   4.350154   4.193034   4.464743   4.508990
    42  H    2.694912   4.296879   4.569959   4.068842   3.659400
    43  H    3.591122   3.479918   3.368244   3.796163   4.340386
    44  H    4.375370   5.205617   5.080481   5.290207   5.297157
    45  C    6.428829   8.320072   6.954149   8.798605   8.691159
    46  H    7.087641   8.575963   6.992537   9.210065   9.324791
    47  H    6.533255   8.789381   7.467027   9.191270   8.911664
    48  H    6.974347   8.905622   7.656934   9.319892   9.134290
                   26         27         28         29         30
    26  H    0.000000
    27  N    2.668796   0.000000
    28  H    2.436100   1.013188   0.000000
    29  H    3.656984   1.019840   1.727955   0.000000
    30  O    5.547356   2.978191   3.656950   1.977981   0.000000
    31  H    5.924870   3.394348   4.201015   2.485246   0.967382
    32  H    5.725067   3.371048   4.064026   2.455984   0.967467
    33  C    4.493648   5.488700   5.986801   6.173580   7.433480
    34  H    3.653191   5.050649   5.385668   5.862359   7.351702
    35  H    4.310312   4.783512   5.419020   5.351542   6.457339
    36  H    5.281175   6.167431   6.649131   6.832770   8.059105
    37  C    8.693941  10.082151  10.588813  10.692712  11.671447
    38  H    9.312323  10.505925  11.083531  11.035855  11.851276
    39  H    8.902886  10.503862  10.937596  11.160634  12.223275
    40  H    9.161217  10.547286  11.044472  11.178570  12.192578
    41  C    5.138198   5.553664   5.989616   5.780202   6.365041
    42  H    5.197234   5.090034   5.665709   5.159336   5.496053
    43  H    4.156276   4.870421   5.179657   5.238847   6.129744
    44  H    5.891428   6.248679   6.605755   6.402040   6.856902
    45  C    9.080829  10.113425  10.611316  10.464585  11.006397
    46  H    9.246205  10.539993  10.968519  10.979422  11.679279
    47  H    9.611564  10.519105  11.091122  10.837001  11.287812
    48  H    9.660052  10.589761  11.073433  10.880320  11.315624
                   31         32         33         34         35
    31  H    0.000000
    32  H    1.518369   0.000000
    33  C    7.201281   7.591558   0.000000
    34  H    7.247509   7.546113   1.101549   0.000000
    35  H    6.168832   6.615968   1.100180   1.766038   0.000000
    36  H    7.747884   8.305587   1.098644   1.778523   1.785434
    37  C   11.415933  11.519774   5.120531   5.708204   5.785689
    38  H   11.554572  11.639029   5.732315   6.424093   6.241917
    39  H   12.041562  12.038986   5.727556   6.150715   6.456048
    40  H   11.891757  12.113520   5.301957   5.917064   6.043953
    41  C    6.654245   5.748548   6.215821   6.137396   5.817652
    42  H    5.720512   4.835554   6.141807   6.166099   5.564182
    43  H    6.500694   5.630073   5.812178   5.554742   5.479260
    44  H    7.231581   6.153447   7.300286   7.183320   6.911905
    45  C   11.022373  10.413202   7.876830   8.179091   7.956482
    46  H   11.722093  11.131044   8.005144   8.236963   8.229481
    47  H   11.211051  10.711862   7.924860   8.364728   7.989108
    48  H   11.377414  10.652200   8.802008   9.069059   8.813620
                   36         37         38         39         40
    36  H    0.000000
    37  C    5.275202   0.000000
    38  H    5.923055   1.102101   0.000000
    39  H    5.966635   1.102646   1.767264   0.000000
    40  H    5.229631   1.096074   1.793472   1.790773   0.000000
    41  C    7.301207   7.876957   7.953464   7.978255   8.802578
    42  H    7.189531   8.184731   8.203858   8.424243   9.063715
    43  H    6.906742   7.949931   8.174814   8.020549   8.816934
    44  H    8.389194   8.719571   8.752704   8.741475   9.686649
    45  C    8.719899   5.769605   5.385526   5.511638   6.858761
    46  H    8.812864   5.486567   5.211874   5.030616   6.559848
    47  H    8.683166   5.406516   4.836254   5.266821   6.461867
    48  H    9.684134   6.859747   6.445100   6.582609   7.946512
                   41         42         43         44         45
    41  C    0.000000
    42  H    1.101549   0.000000
    43  H    1.100176   1.766166   0.000000
    44  H    1.098606   1.778665   1.785321   0.000000
    45  C    5.120976   5.712259   5.782093   5.276384   0.000000
    46  H    5.698431   6.406659   6.203014   5.870046   1.102812
    47  H    5.758397   6.194206   6.466453   6.012894   1.101875
    48  H    5.306242   5.906365   6.058716   5.239691   1.096070
                   46         47         48
    46  H    0.000000
    47  H    1.767061   0.000000
    48  H    1.790596   1.794082   0.000000
 Stoichiometry    C19H22BF2N3O
 Framework group  C1[X(C19H22BF2N3O)]
 Deg. of freedom   138
 Full point group                 C1      NOp   1
 Largest Abelian subgroup         C1      NOp   1
 Largest concise Abelian subgroup C1      NOp   1
                         Standard orientation:                         
 ---------------------------------------------------------------------
 Center     Atomic      Atomic             Coordinates (Angstroms)
 Number     Number       Type             X           Y           Z
 ---------------------------------------------------------------------
      1          6           0       -0.856607   -1.232652   -0.013967
      2          6           0       -0.681778    1.197416   -0.132135
      3          6           0       -0.046942   -0.072731   -0.139454
      4          6           0       -0.497298   -2.635064    0.054347
      5          6           0       -1.694681   -3.325386    0.185106
      6          6           0       -2.756784   -2.389009    0.208721
      7          1           0       -1.817208   -4.404286    0.269475
      8          6           0       -2.394579    2.629164   -0.017273
      9          6           0       -0.136025    2.529931   -0.295972
     10          6           0       -1.219330    3.394446   -0.213954
     11          1           0       -1.192393    4.480032   -0.297024
     12          7           0       -2.242486   -1.142822    0.092855
     13          7           0       -2.060085    1.319046    0.026354
     14          5           0       -3.066284    0.158743    0.163094
     15          9           0       -4.005920    0.202068   -0.872469
     16          9           0       -3.747495    0.241504    1.383729
     17          6           0        1.426340   -0.185456   -0.271323
     18          6           0        2.274223    0.133969    0.798819
     19          6           0        2.016900   -0.611828   -1.469014
     20          6           0        3.654520    0.025694    0.685514
     21          1           0        1.840844    0.473505    1.743235
     22          6           0        3.396592   -0.720173   -1.598715
     23          1           0        1.379373   -0.859323   -2.321848
     24          6           0        4.249443   -0.409494   -0.518799
     25          1           0        4.304627    0.282318    1.524015
     26          1           0        3.834219   -1.050479   -2.543616
     27          7           0        5.607013   -0.557558   -0.610562
     28          1           0        6.009491   -0.610913   -1.538848
     29          1           0        6.170713   -0.094889    0.102357
     30          8           0        6.850552    0.813297    1.722674
     31          1           0        6.596848    0.320220    2.515351
     32          1           0        6.375368    1.650626    1.817918
     33          6           0        0.864325   -3.248851    0.013679
     34          1           0        1.313863   -3.190754   -0.990288
     35          1           0        1.563363   -2.750473    0.701691
     36          1           0        0.796009   -4.309564    0.291599
     37          6           0       -4.210169   -2.647197    0.341333
     38          1           0       -4.624452   -2.103926    1.206118
     39          1           0       -4.753633   -2.285012   -0.547092
     40          1           0       -4.397492   -3.720284    0.462871
     41          6           0        1.285025    2.929082   -0.527237
     42          1           0        1.904323    2.793553    0.373602
     43          1           0        1.755346    2.336241   -1.325814
     44          1           0        1.326338    3.990255   -0.808551
     45          6           0       -3.793396    3.102616    0.108317
     46          1           0       -4.406346    2.730288   -0.729453
     47          1           0       -4.254398    2.714969    1.030996
     48          1           0       -3.826839    4.198143    0.116601
 ---------------------------------------------------------------------
 Rotational constants (GHZ):           0.3344549           0.1314423           0.1029369
 Standard basis: def2SVP (5D, 7F)
 There are   500 symmetry adapted cartesian basis functions of A   symmetry.
 There are   474 symmetry adapted basis functions of A   symmetry.
   474 basis functions,   804 primitive gaussians,   500 cartesian basis functions
    94 alpha electrons       94 beta electrons
       nuclear repulsion energy      2364.8646099648 Hartrees.
 NAtoms=   48 NActive=   48 NUniq=   48 SFac= 1.00D+00 NAtFMM=   60 NAOKFM=F Big=F
 Integral buffers will be    131072 words long.
 Regular integral format.
 Two-electron integral symmetry is turned on.
 ------------------------------------------------------------------------------
 Polarizable Continuum Model (PCM)
 =================================
 Model                : PCM.
 Atomic radii         : SMD-Coulomb.
 Polarization charges : Total charges.
 Charge compensation  : None.
 Solution method      : On-the-fly selection.
 Cavity type          : VdW (van der Waals Surface) (Alpha=1.000).
 Cavity algorithm     : GePol (No added spheres)
                        Default sphere list used, NSphG=   48.
                        Lebedev-Laikov grids with approx.  5.0 points / Ang**2.
                        Smoothing algorithm: York/Karplus (Gamma=1.0000).
                        Polarization charges: spherical gaussians, with
                                              point-specific exponents (IZeta= 3).
                        Self-potential: point-specific (ISelfS= 7).
                        Self-field    : sphere-specific E.n sum rule (ISelfD= 2).
 1st derivatives      : Analytical E(r).r(x)/FMM algorithm (CHGder, D1EAlg=3).
                        Cavity 1st derivative terms included.
 Solvent              : Ethanol, Eps=  24.852000 Eps(inf)=   1.852593
 ------------------------------------------------------------------------------
 ------------------------------------------------------------------------------
 Atomic radii for non-electrostatic terms: SMD-CDS.
 ------------------------------------------------------------------------------
 Nuclear repulsion after PCM non-electrostatic terms =     2364.8629980768 Hartrees.
 One-electron integrals computed using PRISM.
   1 Symmetry operations used in ECPInt.
 ECPInt:  NShTT=   24753 NPrTT=   89657 LenC2=   21436 LenP2D=   52700.
 LDataN:  DoStor=T MaxTD1= 4 Len=   56
 NBasis=   474 RedAO= T EigKep=  2.37D-04  NBF=   474
 NBsUse=   474 1.00D-06 EigRej= -1.00D+00 NBFU=   474
 Initial guess from the checkpoint file:  "06BDP-NH2__m062x_def2SVP_dmso.chk"
 B after Tr=    -0.000000    0.000000    0.000000
         Rot=    1.000000   -0.000000    0.000000    0.000000 Ang=   0.00 deg.
 Requested convergence on RMS density matrix=1.00D-08 within 128 cycles.
 Requested convergence on MAX density matrix=1.00D-06.
 Requested convergence on             energy=1.00D-06.
 No special actions if energy rises.
 Inv3:  Mode=1 IEnd=    35790348.
 Iteration    1 A*A^-1 deviation from unit magnitude is 1.14D-14 for    122.
 Iteration    1 A*A^-1 deviation from orthogonality  is 4.46D-15 for   2377    387.
 Iteration    1 A^-1*A deviation from unit magnitude is 1.28D-14 for    122.
 Iteration    1 A^-1*A deviation from orthogonality  is 7.25D-15 for   1661   1615.
 Error on total polarization charges =  0.04817
 SCF Done:  E(RM062X) =  -1200.17054794     A.U. after    1 cycles
            NFock=  1  Conv=0.26D-08     -V/T= 2.0102
 SMD-CDS (non-electrostatic) energy       (kcal/mol) =      -1.01
 (included in total energy above)
 DoSCS=F DFT=T ScalE2(SS,OS)=  1.000000  1.000000
 ExpMin= 8.36D-02 ExpMax= 2.89D+03 ExpMxC= 4.35D+02 IAcc=3 IRadAn=         5 AccDes= 0.00D+00
 HarFok:  IExCor=  205 AccDes= 0.00D+00 IRadAn=         5 IDoV=-2 UseB2=F ITyADJ=14
 ICtDFT= 12500011 ScaDFX=  1.000000  1.000000  1.000000  1.000000
 GSVD:  LWork=        -884 too small for GESVD, short by        3770 words or        3770 for optimal perf.
 Range of M.O.s used for correlation:    27   474
 NBasis=   474 NAE=    94 NBE=    94 NFC=    26 NFV=     0
 NROrb=    448 NOA=    68 NOB=    68 NVA=   380 NVB=   380

 **** Warning!!: The largest alpha MO coefficient is  0.13316157D+02

 NEqPCM:  Using non-equilibrium solvation (IEInf=1, Eps=  24.8520, EpsInf=   1.8526)
 Inv3:  Mode=1 IEnd=    35790348.
 Iteration    1 A*A^-1 deviation from unit magnitude is 1.22D-14 for    256.
 Iteration    1 A*A^-1 deviation from orthogonality  is 3.78D-15 for   2864    464.
 Iteration    1 A^-1*A deviation from unit magnitude is 1.15D-14 for    256.
 Iteration    1 A^-1*A deviation from orthogonality  is 9.76D-15 for   1661   1615.
 Orbital symmetries:
       Occupied  (A) (A) (A) (A) (A) (A) (A) (A) (A) (A) (A) (A)
                 (A) (A) (A) (A) (A) (A) (A) (A) (A) (A) (A) (A)
                 (A) (A) (A) (A) (A) (A) (A) (A) (A) (A) (A) (A)
                 (A) (A) (A) (A) (A) (A) (A) (A) (A) (A) (A) (A)
                 (A) (A) (A) (A) (A) (A) (A) (A) (A) (A) (A) (A)
                 (A) (A) (A) (A) (A) (A) (A) (A) (A) (A) (A) (A)
                 (A) (A) (A) (A) (A) (A) (A) (A) (A) (A) (A) (A)
                 (A) (A) (A) (A) (A) (A) (A) (A) (A) (A)
       Virtual   (A) (A) (A) (A) (A) (A) (A) (A) (A) (A) (A) (A)
                 (A) (A) (A) (A) (A) (A) (A) (A) (A) (A) (A) (A)
                 (A) (A) (A) (A) (A) (A) (A) (A) (A) (A) (A) (A)
                 (A) (A) (A) (A) (A) (A) (A) (A) (A) (A) (A) (A)
                 (A) (A) (A) (A) (A) (A) (A) (A) (A) (A) (A) (A)
                 (A) (A) (A) (A) (A) (A) (A) (A) (A) (A) (A) (A)
                 (A) (A) (A) (A) (A) (A) (A) (A) (A) (A) (A) (A)
                 (A) (A) (A) (A) (A) (A) (A) (A) (A) (A) (A) (A)
                 (A) (A) (A) (A) (A) (A) (A) (A) (A) (A) (A) (A)
                 (A) (A) (A) (A) (A) (A) (A) (A) (A) (A) (A) (A)
                 (A) (A) (A) (A) (A) (A) (A) (A) (A) (A) (A) (A)
                 (A) (A) (A) (A) (A) (A) (A) (A) (A) (A) (A) (A)
                 (A) (A) (A) (A) (A) (A) (A) (A) (A) (A) (A) (A)
                 (A) (A) (A) (A) (A) (A) (A) (A) (A) (A) (A) (A)
                 (A) (A) (A) (A) (A) (A) (A) (A) (A) (A) (A) (A)
                 (A) (A) (A) (A) (A) (A) (A) (A) (A) (A) (A) (A)
                 (A) (A) (A) (A) (A) (A) (A) (A) (A) (A) (A) (A)
                 (A) (A) (A) (A) (A) (A) (A) (A) (A) (A) (A) (A)
                 (A) (A) (A) (A) (A) (A) (A) (A) (A) (A) (A) (A)
                 (A) (A) (A) (A) (A) (A) (A) (A) (A) (A) (A) (A)
                 (A) (A) (A) (A) (A) (A) (A) (A) (A) (A) (A) (A)
                 (A) (A) (A) (A) (A) (A) (A) (A) (A) (A) (A) (A)
                 (A) (A) (A) (A) (A) (A) (A) (A) (A) (A) (A) (A)
                 (A) (A) (A) (A) (A) (A) (A) (A) (A) (A) (A) (A)
                 (A) (A) (A) (A) (A) (A) (A) (A) (A) (A) (A) (A)
                 (A) (A) (A) (A) (A) (A) (A) (A) (A) (A) (A) (A)
                 (A) (A) (A) (A) (A) (A) (A) (A) (A) (A) (A) (A)
                 (A) (A) (A) (A) (A) (A) (A) (A) (A) (A) (A) (A)
                 (A) (A) (A) (A) (A) (A) (A) (A) (A) (A) (A) (A)
                 (A) (A) (A) (A) (A) (A) (A) (A) (A) (A) (A) (A)
                 (A) (A) (A) (A) (A) (A) (A) (A) (A) (A) (A) (A)
                 (A) (A) (A) (A) (A) (A) (A) (A)
    20 initial guesses have been made.
 Convergence on wavefunction:    0.000001000000000
 Iteration     1 Dimension    20 NMult     0 NNew     20
 CISAX will form    20 AO SS matrices at one time.
 New state      1 was old state      2
 New state      2 was old state      1
 New state      4 was old state      5
 New state      5 was old state      4
 Iteration     2 Dimension    30 NMult    20 NNew     10
 New state      4 was old state      5
 New state      5 was old state      4
 Iteration     3 Dimension    40 NMult    30 NNew     10
 Iteration     4 Dimension    50 NMult    40 NNew     10
 Iteration     5 Dimension    60 NMult    50 NNew     10
 Iteration     6 Dimension    70 NMult    60 NNew     10
 Iteration     7 Dimension    80 NMult    70 NNew     10
 Iteration     8 Dimension    90 NMult    80 NNew     10
 Iteration     9 Dimension   100 NMult    90 NNew     10
 Iteration    10 Dimension   106 NMult   100 NNew      6
 Iteration    11 Dimension   110 NMult   106 NNew      4
 Iteration    12 Dimension   112 NMult   110 NNew      2
 PCM Corrected Linear-Response:
 The state of interest is root number   1
 Excitation energy =    2.9570 eV, Total energy =  -1200.06187865    
 Recompute the excitation energies using the linear response reaction field.
 Convergence on wavefunction:    0.000001000000000
 Iteration     1 Dimension     5 NMult     0 NNew      5
 Iteration     2 Dimension    15 NMult     5 NNew     10
 New state      1 was old state      2
 New state      2 was old state      1
 Iteration     3 Dimension    25 NMult    15 NNew     10
 Iteration     4 Dimension    35 NMult    25 NNew     10
 Iteration     5 Dimension    45 NMult    35 NNew     10
 Iteration     6 Dimension    55 NMult    45 NNew     10
 Iteration     7 Dimension    65 NMult    55 NNew     10
 Iteration     8 Dimension    75 NMult    65 NNew     10
 Iteration     9 Dimension    85 NMult    75 NNew     10
 Iteration    10 Dimension    91 NMult    85 NNew      6
 Iteration    11 Dimension    95 NMult    91 NNew      4
 Iteration    12 Dimension    97 NMult    95 NNew      2
 ***********************************************************************
 Excited states from <AA,BB:AA,BB> singles matrix:
 ***********************************************************************
 
 Ground to excited state transition densities written to RWF  633
 Ground to excited state transition electric dipole moments (Au):
       state          X           Y           Z        Dip. S.      Osc.
         1        -0.2347     -3.0164      0.1818      9.1871      0.6313
         2         1.1135     -0.1368     -0.0863      1.2661      0.0913
         3        -0.0375     -0.6480      0.0739      0.4268      0.0408
         4         0.7419     -0.0562     -0.0742      0.5591      0.0577
         5         0.0069      0.0932     -0.1423      0.0290      0.0032
 Ground to excited state transition velocity dipole moments (Au):
       state          X           Y           Z        Dip. S.      Osc.
         1         0.0244      0.3135     -0.0188      0.0992      0.6417
         2        -0.1195      0.0146      0.0094      0.0146      0.0899
         3         0.0057      0.0967     -0.0107      0.0095      0.0441
         4        -0.1166      0.0088      0.0117      0.0138      0.0595
         5        -0.0009     -0.0171      0.0277      0.0011      0.0042
 Ground to excited state transition magnetic dipole moments (Au):
       state          X           Y           Z
         1         0.1240      0.0106      0.4151
         2         0.1357      0.0296     -0.0188
         3        -0.1552     -0.0798     -1.8180
         4        -0.0016      0.0346     -0.0086
         5         0.0103      0.1688     -0.0076
 Ground to excited state transition velocity quadrupole moments (Au):
       state          XX          YY          ZZ          XY          XZ          YZ
         1        -0.1474      0.0664      0.0046     -1.0825      0.0389      0.0068
         2        -0.5470      0.3222     -0.0399      0.0599      0.0656     -0.0344
         3         0.0496     -0.0814      0.0108      0.3240     -0.0277     -0.0571
         4         0.4751     -0.3785     -0.0080     -0.0472     -0.0139      0.0298
         5         0.0569     -0.0020     -0.0513      0.0673      0.2074     -0.0221
 <0|del|b> * <b|rxdel|0> + <0|del|b> * <b|delr+rdel|0>
 Rotatory Strengths (R) in cgs (10**-40 erg-esu-cm/Gauss)
       state          XX          YY          ZZ    R(velocity)    E-M Angle
         1        12.6810    -85.7017     63.0849     -3.3119       90.61
         2        -0.4543    -42.0231    -61.9176    -34.7983      160.58
         3        27.0568     53.6200    -26.9734     17.9011       86.49
         4        -0.5089     -6.4907      8.7896      0.5967       84.63
         5         4.8781     -4.3526    -13.6336     -4.3694      124.31
 1/2[<0|r|b>*<b|rxdel|0> + (<0|rxdel|b>*<b|r|0>)*]
 Rotatory Strengths (R) in cgs (10**-40 erg-esu-cm/Gauss)
       state          XX          YY          ZZ     R(length)
         1        20.5831     22.6950    -53.3527     -3.3582
         2      -106.8477      2.8597     -1.1456    -35.0445
         3        -4.1100    -36.5540     94.9544     18.0968
         4         0.8386      1.3735     -0.4513      0.5869
         5        -0.0505    -11.1340     -0.7644     -3.9830
  1/2[<0|del|b>*<b|r|0> + (<0|r|b>*<b|del|0>)*] (Au)
       state          X           Y           Z        Dip. S.   Osc.(frdel)
         1        -0.0057     -0.9455     -0.0034      0.9547      0.6364
         2        -0.1331     -0.0020     -0.0008      0.1359      0.0906
         3        -0.0002     -0.0627     -0.0008      0.0637      0.0425
         4        -0.0865     -0.0005     -0.0009      0.0879      0.0586
         5        -0.0000     -0.0016     -0.0039      0.0056      0.0037

 Excitation energies and oscillator strengths:
 
 Excited State   1:      Singlet-A      2.8047 eV  442.06 nm  f=0.6313  <S**2>=0.000
      94 -> 95         0.70261
 This state for optimization and/or second-order correction.
 Total Energy, E(TD-HF/TD-DFT) =  -1200.06747662    
 Copying the excited state density for this state as the 1-particle RhoCI density.
 
 Excited State   2:      Singlet-A      2.9420 eV  421.43 nm  f=0.0913  <S**2>=0.000
      88 -> 95        -0.10787
      93 -> 95         0.69431
 
 Excited State   3:      Singlet-A      3.9055 eV  317.46 nm  f=0.0408  <S**2>=0.000
      90 -> 95        -0.16085
      92 -> 95         0.68162
 
 Excited State   4:      Singlet-A      4.2124 eV  294.33 nm  f=0.0577  <S**2>=0.000
      91 -> 95         0.70138
 
 Excited State   5:      Singlet-A      4.5717 eV  271.20 nm  f=0.0032  <S**2>=0.000
      90 -> 95         0.63707
      92 -> 95         0.15209
      93 -> 96         0.24207
 SavETr:  write IOETrn=   770 NScale= 10 NData=  16 NLR=1 NState=    5 LETran=     100.
 NEqPCM:  Using equilibrium solvation (IEInf=0, Eps=  24.8520, EpsInf=   1.8526)
          Differentiating once with respect to electric field.
                with respect to dipole field.
          Electric field/nuclear overlap derivatives assumed to be zero.
          There are     1 degrees of freedom in the 1st order CPHF.  IDoFFX=0 NUNeed=     1.
 LinEq1:  Iter=  0 NonCon=     1 RMS=2.92D-03 Max=3.45D-01 NDo=     1
 AX will form     1 AO Fock derivatives at one time.
 LinEq1:  Iter=  1 NonCon=     1 RMS=1.31D-03 Max=1.33D-01 NDo=     1
 LinEq1:  Iter=  2 NonCon=     1 RMS=6.55D-04 Max=4.95D-02 NDo=     1
 LinEq1:  Iter=  3 NonCon=     1 RMS=1.73D-04 Max=8.38D-03 NDo=     1
 LinEq1:  Iter=  4 NonCon=     1 RMS=9.69D-05 Max=6.12D-03 NDo=     1
 LinEq1:  Iter=  5 NonCon=     1 RMS=3.51D-05 Max=1.90D-03 NDo=     1
 LinEq1:  Iter=  6 NonCon=     1 RMS=2.15D-05 Max=1.47D-03 NDo=     1
 LinEq1:  Iter=  7 NonCon=     1 RMS=1.07D-05 Max=8.03D-04 NDo=     1
 LinEq1:  Iter=  8 NonCon=     1 RMS=4.72D-06 Max=3.16D-04 NDo=     1
 LinEq1:  Iter=  9 NonCon=     1 RMS=2.40D-06 Max=1.38D-04 NDo=     1
 LinEq1:  Iter= 10 NonCon=     1 RMS=8.48D-07 Max=4.54D-05 NDo=     1
 LinEq1:  Iter= 11 NonCon=     1 RMS=3.52D-07 Max=1.83D-05 NDo=     1
 LinEq1:  Iter= 12 NonCon=     1 RMS=1.46D-07 Max=6.59D-06 NDo=     1
 LinEq1:  Iter= 13 NonCon=     1 RMS=5.99D-08 Max=4.84D-06 NDo=     1
 LinEq1:  Iter= 14 NonCon=     1 RMS=2.47D-08 Max=2.23D-06 NDo=     1
 LinEq1:  Iter= 15 NonCon=     1 RMS=1.42D-08 Max=1.21D-06 NDo=     1
 LinEq1:  Iter= 16 NonCon=     1 RMS=5.71D-09 Max=3.46D-07 NDo=     1
 LinEq1:  Iter= 17 NonCon=     1 RMS=2.26D-09 Max=7.11D-08 NDo=     1
 LinEq1:  Iter= 18 NonCon=     1 RMS=8.34D-10 Max=2.54D-08 NDo=     1
 LinEq1:  Iter= 19 NonCon=     1 RMS=3.79D-10 Max=1.82D-08 NDo=     1
 LinEq1:  Iter= 20 NonCon=     1 RMS=1.89D-10 Max=8.00D-09 NDo=     1
 LinEq1:  Iter= 21 NonCon=     1 RMS=6.38D-11 Max=1.93D-09 NDo=     1
 LinEq1:  Iter= 22 NonCon=     1 RMS=3.46D-11 Max=1.38D-09 NDo=     1
 LinEq1:  Iter= 23 NonCon=     0 RMS=9.45D-12 Max=2.48D-10 NDo=     1
 Linear equations converged to 1.000D-10 1.000D-09 after    23 iterations.
 PCM Corrected Linear-Response - Non-equilibrium solvation:
 Corrected transition energy               =    2.9527          eV
 Total energy after correction             = -1200.06203645     a.u.
 End of Minotr F.D. properties file   721 does not exist.
 End of Minotr F.D. properties file   722 does not exist.
 End of Minotr F.D. properties file   788 does not exist.

 **********************************************************************

            Population analysis using the CI density.

 **********************************************************************

 Orbital symmetries:
       Occupied  (A) (A) (A) (A) (A) (A) (A) (A) (A) (A) (A) (A)
                 (A) (A) (A) (A) (A) (A) (A) (A) (A) (A) (A) (A)
                 (A) (A) (A) (A) (A) (A) (A) (A) (A) (A) (A) (A)
                 (A) (A) (A) (A) (A) (A) (A) (A) (A) (A) (A) (A)
                 (A) (A) (A) (A) (A) (A) (A) (A) (A) (A) (A) (A)
                 (A) (A) (A) (A) (A) (A) (A) (A) (A) (A) (A) (A)
                 (A) (A) (A) (A) (A) (A) (A) (A) (A) (A) (A) (A)
                 (A) (A) (A) (A) (A) (A) (A) (A) (A) (A)
       Virtual   (A) (A) (A) (A) (A) (A) (A) (A) (A) (A) (A) (A)
                 (A) (A) (A) (A) (A) (A) (A) (A) (A) (A) (A) (A)
                 (A) (A) (A) (A) (A) (A) (A) (A) (A) (A) (A) (A)
                 (A) (A) (A) (A) (A) (A) (A) (A) (A) (A) (A) (A)
                 (A) (A) (A) (A) (A) (A) (A) (A) (A) (A) (A) (A)
                 (A) (A) (A) (A) (A) (A) (A) (A) (A) (A) (A) (A)
                 (A) (A) (A) (A) (A) (A) (A) (A) (A) (A) (A) (A)
                 (A) (A) (A) (A) (A) (A) (A) (A) (A) (A) (A) (A)
                 (A) (A) (A) (A) (A) (A) (A) (A) (A) (A) (A) (A)
                 (A) (A) (A) (A) (A) (A) (A) (A) (A) (A) (A) (A)
                 (A) (A) (A) (A) (A) (A) (A) (A) (A) (A) (A) (A)
                 (A) (A) (A) (A) (A) (A) (A) (A) (A) (A) (A) (A)
                 (A) (A) (A) (A) (A) (A) (A) (A) (A) (A) (A) (A)
                 (A) (A) (A) (A) (A) (A) (A) (A) (A) (A) (A) (A)
                 (A) (A) (A) (A) (A) (A) (A) (A) (A) (A) (A) (A)
                 (A) (A) (A) (A) (A) (A) (A) (A) (A) (A) (A) (A)
                 (A) (A) (A) (A) (A) (A) (A) (A) (A) (A) (A) (A)
                 (A) (A) (A) (A) (A) (A) (A) (A) (A) (A) (A) (A)
                 (A) (A) (A) (A) (A) (A) (A) (A) (A) (A) (A) (A)
                 (A) (A) (A) (A) (A) (A) (A) (A) (A) (A) (A) (A)
                 (A) (A) (A) (A) (A) (A) (A) (A) (A) (A) (A) (A)
                 (A) (A) (A) (A) (A) (A) (A) (A) (A) (A) (A) (A)
                 (A) (A) (A) (A) (A) (A) (A) (A) (A) (A) (A) (A)
                 (A) (A) (A) (A) (A) (A) (A) (A) (A) (A) (A) (A)
                 (A) (A) (A) (A) (A) (A) (A) (A) (A) (A) (A) (A)
                 (A) (A) (A) (A) (A) (A) (A) (A) (A) (A) (A) (A)
                 (A) (A) (A) (A) (A) (A) (A) (A) (A) (A) (A) (A)
                 (A) (A) (A) (A) (A) (A) (A) (A) (A) (A) (A) (A)
                 (A) (A) (A) (A) (A) (A) (A) (A) (A) (A) (A) (A)
                 (A) (A) (A) (A) (A) (A) (A) (A) (A) (A) (A) (A)
                 (A) (A) (A) (A) (A) (A) (A) (A) (A) (A) (A) (A)
                 (A) (A) (A) (A) (A) (A) (A) (A)
 The electronic state is 1-A.
 Alpha  occ. eigenvalues --  -25.20047 -25.20029 -19.62986 -14.78453 -14.78450
 Alpha  occ. eigenvalues --  -14.74920 -10.60877 -10.60464 -10.60461 -10.59772
 Alpha  occ. eigenvalues --  -10.58970 -10.58964 -10.57291 -10.57282 -10.56129
 Alpha  occ. eigenvalues --  -10.56096 -10.56029 -10.55039 -10.55038 -10.54849
 Alpha  occ. eigenvalues --  -10.54798 -10.54765 -10.54732 -10.54398 -10.54385
 Alpha  occ. eigenvalues --   -7.13368  -1.28891  -1.25340  -1.10577  -1.08908
 Alpha  occ. eigenvalues --   -1.07033  -1.00944  -0.94806  -0.90149  -0.89222
 Alpha  occ. eigenvalues --   -0.88511  -0.84916  -0.83719  -0.83141  -0.79077
 Alpha  occ. eigenvalues --   -0.78840  -0.78476  -0.74633  -0.69873  -0.69124
 Alpha  occ. eigenvalues --   -0.68440  -0.66026  -0.63633  -0.62808  -0.61997
 Alpha  occ. eigenvalues --   -0.60077  -0.59410  -0.59246  -0.58320  -0.57979
 Alpha  occ. eigenvalues --   -0.57263  -0.55044  -0.54210  -0.52283  -0.51923
 Alpha  occ. eigenvalues --   -0.51505  -0.50311  -0.49909  -0.49540  -0.49309
 Alpha  occ. eigenvalues --   -0.48257  -0.48094  -0.47972  -0.47847  -0.47336
 Alpha  occ. eigenvalues --   -0.46521  -0.46479  -0.46055  -0.46022  -0.45964
 Alpha  occ. eigenvalues --   -0.45911  -0.45584  -0.44399  -0.44133  -0.43471
 Alpha  occ. eigenvalues --   -0.43455  -0.42582  -0.42154  -0.41150  -0.40397
 Alpha  occ. eigenvalues --   -0.39555  -0.38474  -0.36844  -0.33542  -0.31175
 Alpha  occ. eigenvalues --   -0.31069  -0.30051  -0.24968  -0.24463
 Alpha virt. eigenvalues --   -0.07201   0.02226   0.03892   0.06626   0.08510
 Alpha virt. eigenvalues --    0.09228   0.10809   0.10993   0.12122   0.12605
 Alpha virt. eigenvalues --    0.13233   0.13423   0.13945   0.14228   0.14851
 Alpha virt. eigenvalues --    0.15273   0.16208   0.17078   0.17231   0.17724
 Alpha virt. eigenvalues --    0.18226   0.19495   0.20061   0.20265   0.20530
 Alpha virt. eigenvalues --    0.20813   0.21015   0.21250   0.22138   0.23016
 Alpha virt. eigenvalues --    0.23228   0.25049   0.25272   0.26143   0.26193
 Alpha virt. eigenvalues --    0.26412   0.26713   0.28332   0.28715   0.29011
 Alpha virt. eigenvalues --    0.30673   0.31070   0.31733   0.32982   0.33222
 Alpha virt. eigenvalues --    0.33780   0.35285   0.35895   0.37504   0.37649
 Alpha virt. eigenvalues --    0.38818   0.39201   0.41178   0.41695   0.41743
 Alpha virt. eigenvalues --    0.42455   0.43535   0.43819   0.44541   0.45313
 Alpha virt. eigenvalues --    0.45844   0.46673   0.46909   0.47685   0.48006
 Alpha virt. eigenvalues --    0.48190   0.49062   0.49460   0.50141   0.50534
 Alpha virt. eigenvalues --    0.51597   0.52078   0.52942   0.53352   0.54178
 Alpha virt. eigenvalues --    0.54835   0.55587   0.55847   0.56688   0.57185
 Alpha virt. eigenvalues --    0.58733   0.59810   0.60352   0.61349   0.62102
 Alpha virt. eigenvalues --    0.62487   0.62797   0.63323   0.63779   0.64939
 Alpha virt. eigenvalues --    0.65807   0.66077   0.66814   0.68573   0.69349
 Alpha virt. eigenvalues --    0.69727   0.70158   0.70336   0.70504   0.70765
 Alpha virt. eigenvalues --    0.71330   0.72034   0.72216   0.72295   0.72783
 Alpha virt. eigenvalues --    0.73363   0.73753   0.74036   0.74089   0.74577
 Alpha virt. eigenvalues --    0.74769   0.74943   0.75099   0.76315   0.76665
 Alpha virt. eigenvalues --    0.77088   0.77915   0.77992   0.78150   0.78582
 Alpha virt. eigenvalues --    0.78961   0.79184   0.79472   0.79862   0.80795
 Alpha virt. eigenvalues --    0.81964   0.82396   0.82750   0.83187   0.84376
 Alpha virt. eigenvalues --    0.84765   0.85278   0.85689   0.87109   0.88669
 Alpha virt. eigenvalues --    0.89253   0.89414   0.90529   0.91997   0.95328
 Alpha virt. eigenvalues --    0.95486   0.95948   0.96205   0.97257   0.98094
 Alpha virt. eigenvalues --    1.00167   1.01215   1.04106   1.04444   1.04826
 Alpha virt. eigenvalues --    1.06717   1.08410   1.10126   1.10382   1.11531
 Alpha virt. eigenvalues --    1.12080   1.12994   1.13053   1.14859   1.15629
 Alpha virt. eigenvalues --    1.16105   1.17730   1.20686   1.21141   1.21685
 Alpha virt. eigenvalues --    1.21813   1.24512   1.25386   1.26372   1.26566
 Alpha virt. eigenvalues --    1.27012   1.28294   1.28879   1.29821   1.30475
 Alpha virt. eigenvalues --    1.32356   1.32755   1.34605   1.35185   1.35827
 Alpha virt. eigenvalues --    1.36383   1.37658   1.37925   1.39177   1.39389
 Alpha virt. eigenvalues --    1.40481   1.40727   1.42041   1.42537   1.44145
 Alpha virt. eigenvalues --    1.45103   1.45556   1.46486   1.48629   1.51546
 Alpha virt. eigenvalues --    1.54883   1.56070   1.56257   1.57200   1.57789
 Alpha virt. eigenvalues --    1.59079   1.59237   1.59516   1.59864   1.60177
 Alpha virt. eigenvalues --    1.61423   1.62407   1.62663   1.63995   1.65197
 Alpha virt. eigenvalues --    1.66037   1.69007   1.70095   1.70792   1.71722
 Alpha virt. eigenvalues --    1.71788   1.72213   1.72436   1.73157   1.75385
 Alpha virt. eigenvalues --    1.75649   1.76039   1.77260   1.77932   1.78647
 Alpha virt. eigenvalues --    1.78743   1.79420   1.80900   1.80960   1.81673
 Alpha virt. eigenvalues --    1.81864   1.82173   1.82581   1.82888   1.83956
 Alpha virt. eigenvalues --    1.84072   1.84643   1.84738   1.85013   1.85237
 Alpha virt. eigenvalues --    1.86200   1.86941   1.87420   1.87860   1.88426
 Alpha virt. eigenvalues --    1.88970   1.89170   1.89734   1.90794   1.92053
 Alpha virt. eigenvalues --    1.92608   1.94502   1.95846   1.96594   1.97946
 Alpha virt. eigenvalues --    1.98400   1.99467   1.99596   2.01046   2.01346
 Alpha virt. eigenvalues --    2.01617   2.02419   2.02505   2.03612   2.06655
 Alpha virt. eigenvalues --    2.07088   2.07752   2.08370   2.09231   2.11757
 Alpha virt. eigenvalues --    2.12238   2.12562   2.14247   2.14538   2.16541
 Alpha virt. eigenvalues --    2.16770   2.17723   2.18920   2.19261   2.21595
 Alpha virt. eigenvalues --    2.21719   2.22562   2.23339   2.24309   2.24501
 Alpha virt. eigenvalues --    2.25205   2.25622   2.26780   2.27574   2.28721
 Alpha virt. eigenvalues --    2.29486   2.30025   2.30127   2.31094   2.32781
 Alpha virt. eigenvalues --    2.34103   2.35777   2.37445   2.37726   2.38300
 Alpha virt. eigenvalues --    2.39345   2.39794   2.42753   2.43844   2.45003
 Alpha virt. eigenvalues --    2.45398   2.46317   2.47571   2.48332   2.50758
 Alpha virt. eigenvalues --    2.51090   2.52147   2.54521   2.54706   2.59617
 Alpha virt. eigenvalues --    2.60594   2.63868   2.64401   2.65385   2.66571
 Alpha virt. eigenvalues --    2.67082   2.68573   2.69029   2.70518   2.71029
 Alpha virt. eigenvalues --    2.71972   2.72246   2.73192   2.74993   2.75470
 Alpha virt. eigenvalues --    2.75981   2.76254   2.76455   2.77886   2.80898
 Alpha virt. eigenvalues --    2.81897   2.84637   2.87689   2.91832   2.92971
 Alpha virt. eigenvalues --    2.93925   2.94243   2.95009   2.95779   2.96101
 Alpha virt. eigenvalues --    2.96500   2.97519   2.98291   2.99134   3.01519
 Alpha virt. eigenvalues --    3.02531   3.04758   3.05672   3.08701   3.08914
 Alpha virt. eigenvalues --    3.10496   3.10946   3.18347   3.19025   3.19769
[...]
    19  C   -0.003522  -0.072908   0.007847   0.000424  -0.000409  -0.000002
    20  C    0.443052   0.017196  -0.116145   0.011922  -0.022835  -0.004895
    21  H   -0.014464   0.000016  -0.000081   0.000011  -0.000020  -0.000020
    22  C    0.017872   0.467575  -0.108598  -0.024606   0.010457   0.000000
    23  H    0.000013  -0.012474  -0.000093  -0.000017   0.000008  -0.000000
    24  C   -0.105158  -0.082402   0.484479  -0.005061  -0.007402  -0.004665
    25  H    0.698441  -0.000117  -0.015183  -0.000046   0.004372   0.025813
    26  H   -0.000117   0.651214  -0.010861   0.004960  -0.000202   0.000003
    27  N   -0.015183  -0.010861   6.222828   0.363032   0.347301  -0.020591
    28  H   -0.000046   0.004960   0.363032   0.514426  -0.024003   0.000035
    29  H    0.004372  -0.000202   0.347301  -0.024003   0.510747   0.066916
    30  O    0.025813   0.000003  -0.020591   0.000035   0.066916   7.613645
    31  H    0.002912  -0.000001   0.001607  -0.000019  -0.006384   0.337664
    32  H    0.002377  -0.000001   0.001494  -0.000015  -0.006410   0.336813
    33  C   -0.000014   0.000039   0.000003  -0.000001  -0.000000   0.000000
    34  H    0.000002  -0.000044  -0.000012   0.000000  -0.000000  -0.000000
    35  H    0.000039  -0.000025  -0.000058   0.000002  -0.000000  -0.000000
    36  H   -0.000000   0.000003   0.000000  -0.000000   0.000000   0.000000
    37  C   -0.000000  -0.000000  -0.000000  -0.000000  -0.000000  -0.000000
    38  H    0.000000  -0.000000   0.000000  -0.000000   0.000000  -0.000000
    39  H   -0.000000   0.000000  -0.000000   0.000000  -0.000000   0.000000
    40  H    0.000000   0.000000  -0.000000   0.000000   0.000000  -0.000000
    41  C    0.000029  -0.000017   0.000003   0.000000  -0.000001  -0.000000
    42  H   -0.000059   0.000004  -0.000012  -0.000001  -0.000001  -0.000000
    43  H   -0.000006   0.000052  -0.000046  -0.000004  -0.000002   0.000000
    44  H    0.000002  -0.000000   0.000000   0.000000   0.000000  -0.000000
    45  C   -0.000000  -0.000000  -0.000000  -0.000000  -0.000000   0.000000
    46  H   -0.000000   0.000000   0.000000   0.000000  -0.000000   0.000000
    47  H    0.000000  -0.000000  -0.000000  -0.000000   0.000000   0.000000
    48  H    0.000000   0.000000  -0.000000   0.000000   0.000000  -0.000000
              31         32         33         34         35         36
     1  C   -0.000000   0.000000  -0.071524  -0.003806  -0.006154   0.009315
     2  C   -0.000000   0.000000   0.000218  -0.000129  -0.000410   0.000023
     3  C   -0.000000  -0.000000  -0.011289   0.001061  -0.001587   0.000176
     4  C    0.000000  -0.000000   0.442321  -0.008547  -0.007689  -0.012038
     5  C    0.000000  -0.000000  -0.090525   0.002197   0.006284  -0.012672
     6  C   -0.000000   0.000000   0.014915  -0.000396  -0.000539   0.000242
     7  H   -0.000000   0.000000  -0.010164   0.000268   0.000098   0.004298
     8  C   -0.000000   0.000000  -0.000000   0.000000  -0.000000   0.000000
     9  C    0.000000  -0.000000  -0.000008  -0.000006  -0.000011   0.000000
    10  C    0.000000  -0.000000   0.000000   0.000000   0.000000  -0.000000
    11  H   -0.000000   0.000000  -0.000000   0.000000   0.000000  -0.000000
    12  N   -0.000000   0.000000   0.004454  -0.000039   0.000011  -0.000092
    13  N   -0.000000  -0.000000  -0.000004   0.000000   0.000001  -0.000000
    14  B   -0.000000  -0.000000   0.000271   0.000006  -0.000001   0.000002
    15  F   -0.000000   0.000000   0.000000  -0.000000   0.000000  -0.000000
    16  F   -0.000000  -0.000000   0.000000   0.000000  -0.000000  -0.000000
    17  C   -0.000001  -0.000002   0.000619  -0.003161   0.006014   0.000451
    18  C    0.000000  -0.000038  -0.003507  -0.000241   0.000713   0.000074
    19  C    0.000000  -0.000001  -0.002766   0.009532  -0.002894   0.000319
    20  C   -0.000425  -0.000120  -0.000536  -0.000043   0.002877  -0.000032
    21  H    0.000005   0.000004  -0.000080  -0.000014   0.000086   0.000001
    22  C   -0.000001   0.000005  -0.001438   0.000535  -0.000903   0.000017
    23  H    0.000000   0.000000  -0.001756   0.000912   0.000109   0.000023
    24  C    0.000097   0.000644  -0.000245   0.000166   0.000457  -0.000011
    25  H    0.002912   0.002377  -0.000014   0.000002   0.000039  -0.000000
    26  H   -0.000001  -0.000001   0.000039  -0.000044  -0.000025   0.000003
    27  N    0.001607   0.001494   0.000003  -0.000012  -0.000058   0.000000
    28  H   -0.000019  -0.000015  -0.000001   0.000000   0.000002  -0.000000
    29  H   -0.006384  -0.006410  -0.000000  -0.000000  -0.000000   0.000000
    30  O    0.337664   0.336813   0.000000  -0.000000  -0.000000   0.000000
    31  H    0.461968  -0.023320  -0.000000  -0.000000   0.000000  -0.000000
    32  H   -0.023320   0.464865   0.000000   0.000000  -0.000000   0.000000
    33  C   -0.000000   0.000000   4.523050   0.371050   0.372565   0.382364
    34  H   -0.000000   0.000000   0.371050   0.604287  -0.020919  -0.018098
    35  H    0.000000  -0.000000   0.372565  -0.020919   0.616958  -0.020910
    36  H   -0.000000   0.000000   0.382364  -0.018098  -0.020910   0.613596
    37  C   -0.000000   0.000000  -0.000217   0.000009   0.000010  -0.000015
    38  H    0.000000  -0.000000   0.000010   0.000001  -0.000001  -0.000001
    39  H   -0.000000   0.000000   0.000011  -0.000002   0.000000   0.000001
    40  H    0.000000  -0.000000  -0.000013   0.000000  -0.000000   0.000001
    41  C   -0.000000   0.000000  -0.000002   0.000000   0.000002   0.000000
    42  H   -0.000000   0.000006   0.000000  -0.000001   0.000005   0.000000
    43  H    0.000000  -0.000001   0.000002   0.000005  -0.000002  -0.000000
    44  H   -0.000000   0.000000   0.000000   0.000000  -0.000000  -0.000000
    45  C   -0.000000   0.000000  -0.000000   0.000000  -0.000000   0.000000
    46  H   -0.000000   0.000000  -0.000000  -0.000000   0.000000   0.000000
    47  H    0.000000  -0.000000  -0.000000   0.000000  -0.000000  -0.000000
    48  H    0.000000   0.000000   0.000000  -0.000000  -0.000000   0.000000
              37         38         39         40         41         42
     1  C    0.009880  -0.000044  -0.000181  -0.000155   0.000235  -0.000140
     2  C    0.000024  -0.000011   0.000014   0.000001  -0.071755  -0.003661
     3  C   -0.000189   0.000008  -0.000031   0.000008  -0.011358   0.000968
     4  C    0.012564  -0.000414  -0.000283   0.000550  -0.000008  -0.000005
     5  C   -0.084189   0.004394   0.003001  -0.014540   0.000000   0.000000
     6  C    0.415729  -0.007734  -0.008463   0.000698  -0.000000   0.000000
     7  H   -0.009507   0.000133   0.000158   0.003361  -0.000000   0.000000
     8  C   -0.000006   0.000004  -0.000002  -0.000000   0.014942  -0.000406
     9  C   -0.000002   0.000000   0.000001   0.000000   0.442058  -0.008688
    10  C    0.000000   0.000000   0.000000   0.000000  -0.090537   0.002314
    11  H    0.000000  -0.000000  -0.000000  -0.000000  -0.010189   0.000273
    12  N   -0.073246  -0.004093  -0.003134   0.005071  -0.000004   0.000000
    13  N    0.000206   0.000114   0.000074   0.000003   0.004475  -0.000039
    14  B   -0.002305   0.008561   0.007492  -0.000312   0.000273   0.000006
    15  F    0.000703  -0.002260   0.006852   0.000121   0.000000   0.000000
    16  F   -0.004724   0.010165  -0.001201   0.000081   0.000000  -0.000000
    17  C    0.000006   0.000000  -0.000001  -0.000000   0.000947  -0.003041
    18  C   -0.000000   0.000000  -0.000000   0.000000  -0.003027   0.009195
    19  C    0.000000  -0.000000   0.000000  -0.000000  -0.003599  -0.000386
    20  C    0.000000  -0.000000   0.000000  -0.000000  -0.001484   0.000927
    21  H   -0.000000  -0.000000   0.000000   0.000000  -0.001719   0.000864
    22  C    0.000000   0.000000  -0.000000  -0.000000  -0.000562   0.000000
    23  H   -0.000000  -0.000000   0.000000   0.000000  -0.000095  -0.000016
    24  C   -0.000000  -0.000000   0.000000  -0.000000  -0.000192   0.000157
    25  H   -0.000000   0.000000  -0.000000   0.000000   0.000029  -0.000059
    26  H   -0.000000  -0.000000   0.000000   0.000000  -0.000017   0.000004
    27  N   -0.000000   0.000000  -0.000000  -0.000000   0.000003  -0.000012
    28  H   -0.000000  -0.000000   0.000000   0.000000   0.000000  -0.000001
    29  H   -0.000000   0.000000  -0.000000   0.000000  -0.000001  -0.000001
    30  O   -0.000000  -0.000000   0.000000  -0.000000  -0.000000  -0.000000
    31  H   -0.000000   0.000000  -0.000000   0.000000  -0.000000  -0.000000
    32  H    0.000000  -0.000000   0.000000  -0.000000   0.000000   0.000006
    33  C   -0.000217   0.000010   0.000011  -0.000013  -0.000002   0.000000
    34  H    0.000009   0.000001  -0.000002   0.000000   0.000000  -0.000001
    35  H    0.000010  -0.000001   0.000000  -0.000000   0.000002   0.000005
    36  H   -0.000015  -0.000001   0.000001   0.000001   0.000000   0.000000
    37  C    4.572545   0.364169   0.367192   0.379277  -0.000000   0.000000
    38  H    0.364169   0.578926  -0.023877  -0.015816  -0.000000  -0.000000
    39  H    0.367192  -0.023877   0.580914  -0.015843  -0.000000   0.000000
    40  H    0.379277  -0.015816  -0.015843   0.594423  -0.000000  -0.000000
    41  C   -0.000000  -0.000000  -0.000000  -0.000000   4.523973   0.370637
    42  H    0.000000  -0.000000   0.000000  -0.000000   0.370637   0.606118
    43  H   -0.000000   0.000000  -0.000000   0.000000   0.372489  -0.020819
    44  H    0.000000   0.000000  -0.000000   0.000000   0.382496  -0.018260
    45  C    0.000023  -0.000008  -0.000009   0.000000  -0.000219   0.000008
    46  H   -0.000012  -0.000014   0.000035  -0.000000   0.000009   0.000001
    47  H   -0.000004   0.000040  -0.000012  -0.000000   0.000011  -0.000002
    48  H    0.000000  -0.000000  -0.000000  -0.000000  -0.000012  -0.000000
              43         44         45         46         47         48
     1  C   -0.000415   0.000023   0.000024  -0.000011   0.000016   0.000001
     2  C   -0.006102   0.009282   0.009921  -0.000070  -0.000141  -0.000166
     3  C   -0.001472   0.000178  -0.000185   0.000006  -0.000031   0.000007
     4  C   -0.000011   0.000000  -0.000002   0.000000   0.000001   0.000000
     5  C    0.000000  -0.000000   0.000000   0.000000   0.000000   0.000000
     6  C   -0.000000   0.000000  -0.000005   0.000006  -0.000006  -0.000000
     7  H    0.000000  -0.000000   0.000000  -0.000000   0.000000  -0.000000
     8  C   -0.000531   0.000237   0.415929  -0.008413  -0.007754   0.000605
     9  C   -0.007671  -0.011984   0.012537  -0.000322  -0.000383   0.000564
    10  C    0.006177  -0.012602  -0.084400   0.002715   0.004715  -0.014571
    11  H    0.000096   0.004294  -0.009448   0.000169   0.000125   0.003325
    12  N    0.000001  -0.000000   0.000207   0.000083   0.000106   0.000003
    13  N    0.000012  -0.000092  -0.073431  -0.003184  -0.004069   0.005065
    14  B   -0.000002   0.000002  -0.002530   0.007273   0.008893  -0.000313
    15  F   -0.000000  -0.000000   0.000156   0.007788  -0.002304   0.000139
    16  F    0.000000  -0.000000  -0.004011  -0.001209   0.009289   0.000073
    17  C    0.006531   0.000432   0.000007   0.000000  -0.000001  -0.000000
    18  C   -0.003133   0.000328   0.000000  -0.000000   0.000000  -0.000000
    19  C    0.000592   0.000082  -0.000000   0.000000  -0.000000   0.000000
    20  C   -0.000689   0.000009   0.000000   0.000000  -0.000000  -0.000000
    21  H    0.000099   0.000023  -0.000000  -0.000000   0.000000   0.000000
    22  C    0.002948  -0.000033   0.000000  -0.000000   0.000000  -0.000000
    23  H    0.000112   0.000001  -0.000000  -0.000000   0.000000   0.000000
    24  C    0.000248  -0.000008  -0.000000  -0.000000   0.000000  -0.000000
    25  H   -0.000006   0.000002  -0.000000  -0.000000   0.000000   0.000000
    26  H    0.000052  -0.000000  -0.000000   0.000000  -0.000000   0.000000
    27  N   -0.000046   0.000000  -0.000000   0.000000  -0.000000  -0.000000
    28  H   -0.000004   0.000000  -0.000000   0.000000  -0.000000   0.000000
    29  H   -0.000002   0.000000  -0.000000  -0.000000   0.000000   0.000000
    30  O    0.000000  -0.000000   0.000000   0.000000   0.000000  -0.000000
    31  H    0.000000  -0.000000  -0.000000  -0.000000   0.000000   0.000000
    32  H   -0.000001   0.000000   0.000000   0.000000  -0.000000   0.000000
    33  C    0.000002   0.000000  -0.000000  -0.000000  -0.000000   0.000000
    34  H    0.000005   0.000000   0.000000  -0.000000   0.000000  -0.000000
    35  H   -0.000002  -0.000000  -0.000000   0.000000  -0.000000  -0.000000
    36  H   -0.000000  -0.000000   0.000000   0.000000  -0.000000   0.000000
    37  C   -0.000000   0.000000   0.000023  -0.000012  -0.000004   0.000000
    38  H    0.000000   0.000000  -0.000008  -0.000014   0.000040  -0.000000
    39  H   -0.000000  -0.000000  -0.000009   0.000035  -0.000012  -0.000000
    40  H    0.000000   0.000000   0.000000  -0.000000  -0.000000  -0.000000
    41  C    0.372489   0.382496  -0.000219   0.000009   0.000011  -0.000012
    42  H   -0.020819  -0.018260   0.000008   0.000001  -0.000002  -0.000000
    43  H    0.616509  -0.020789   0.000011  -0.000001   0.000000   0.000000
    44  H   -0.020789   0.613430  -0.000014  -0.000001   0.000000   0.000001
    45  C    0.000011  -0.000014   4.572903   0.366580   0.364844   0.379347
    46  H   -0.000001  -0.000001   0.366580   0.579283  -0.023848  -0.015354
    47  H    0.000000   0.000000   0.364844  -0.023848   0.580501  -0.016381
    48  H    0.000000   0.000001   0.379347  -0.015354  -0.016381   0.594633
 Mulliken charges:
               1
     1  C    0.087073
     2  C    0.086054
     3  C    0.006095
     4  C   -0.154640
     5  C   -0.118420
     6  C   -0.035698
     7  H    0.033671
     8  C   -0.036004
     9  C   -0.154985
    10  C   -0.118911
    11  H    0.033480
    12  N   -0.210440
    13  N   -0.209760
    14  B    0.212462
    15  F   -0.253982
    16  F   -0.254708
    17  C   -0.143470
    18  C   -0.006455
    19  C   -0.009164
    20  C   -0.091826
    21  H    0.030001
    22  C   -0.095585
    23  H    0.031717
    24  C    0.051772
    25  H   -0.014271
    26  H    0.023474
    27  N   -0.163997
    28  H    0.159496
    29  H    0.127128
    30  O   -0.351075
    31  H    0.225896
    32  H    0.223697
    33  C    0.082194
    34  H    0.065429
    35  H    0.055870
    36  H    0.052963
    37  C    0.052079
    38  H    0.087749
    39  H    0.087294
    40  H    0.063085
    41  C    0.082200
    42  H    0.064055
    43  H    0.055811
    44  H    0.052963
    45  C    0.051766
    46  H    0.088490
    47  H    0.086392
    48  H    0.063036
 Sum of Mulliken charges =  -0.00000
 Mulliken charges with hydrogens summed into heavy atoms:
               1
     1  C    0.087073
     2  C    0.086054
     3  C    0.006095
     4  C   -0.154640
     5  C   -0.084749
     6  C   -0.035698
     8  C   -0.036004
     9  C   -0.154985
    10  C   -0.085432
    12  N   -0.210440
    13  N   -0.209760
    14  B    0.212462
    15  F   -0.253982
    16  F   -0.254708
    17  C   -0.143470
    18  C    0.023546
    19  C    0.022553
    20  C   -0.106098
    22  C   -0.072111
    24  C    0.051772
    27  N    0.122626
    30  O    0.098518
    33  C    0.256457
    37  C    0.290208
    41  C    0.255029
    45  C    0.289685
 Electronic spatial extent (au):  <R**2>=          10346.8644
 Charge=              0.0000 electrons
 Dipole moment (field-independent basis, Debye):
    X=              7.1747    Y=              1.1363    Z=              1.0809  Tot=              7.3441
 Quadrupole moment (field-independent basis, Debye-Ang):
   XX=           -143.2130   YY=           -127.3274   ZZ=           -144.4508
   XY=              9.3483   XZ=              7.8273   YZ=              3.4537
 Traceless Quadrupole moment (field-independent basis, Debye-Ang):
   XX=             -4.8826   YY=             11.0030   ZZ=             -6.1204
   XY=              9.3483   XZ=              7.8273   YZ=              3.4537
 Octapole moment (field-independent basis, Debye-Ang**2):
  XXX=            102.3141  YYY=             25.1796  ZZZ=             25.0377  XYY=            -51.1739
  XXY=             23.9318  XXZ=             38.5829  XZZ=             88.6837  YZZ=              1.9484
  YYZ=             10.8944  XYZ=             25.3057
 Hexadecapole moment (field-independent basis, Debye-Ang**3):
 XXXX=          -8945.0570 YYYY=          -3235.4692 ZZZZ=           -608.4665 XXXY=            189.2987
 XXXZ=            150.6298 YYYX=             71.5683 YYYZ=            -19.3119 ZZZX=            165.3842
 ZZZY=             49.5968 XXYY=          -1818.1244 XXZZ=          -1228.1696 YYZZ=           -756.6224
 XXYZ=             92.3495 YYXZ=             31.4862 ZZXY=             16.1588
 N-N= 2.364862998077D+03 E-N=-7.528237066803D+03  KE= 1.188226571949D+03
 1\1\GINC-X1002C4S5B1N1\SP\RM062X TD-FC\def2SVP\C19H22B1F2N3O1\XIAOGAN4
 \26-Dec-2025\0\\# m062x/def2SVP TD=(NStates=5, Root=1) SCRF=(SMD, solv
 ent=Ethanol, CorrectedLR) geom=check guess=read\\Step6 ES cLR m062x/de
 f2SVP\\0,1\C,0,-0.8055351494,-1.2693330194,-0.1082776639\C,0,-0.719291
 7656,1.1663541427,-0.0095309321\C,0,-0.039003264,-0.074086031,-0.13142
 83579\C,0,-0.3954090782,-2.6582115394,-0.1660832257\C,0,-1.566347177,-
 3.4006519514,-0.0949975367\C,0,-2.6614664558,-2.5094690232,0.014223025
 \H,0,-1.6493454342,-4.4865273177,-0.1069693759\C,0,-2.4821001374,2.518
 7448548,0.2360901759\C,0,-0.2229382007,2.5271835635,-0.0549449446\C,0,
 -1.3363392103,3.340861976,0.1060777677\H,0,-1.3491021977,4.4297898052,
 0.1201344062\N,0,-2.193171826,-1.2399870993,0.0089519067\N,0,-2.100239
 8273,1.2230256619,0.1619799651\B,0,-3.0631004356,0.0192273161,0.196705
 1586\F,0,-4.0091424198,0.1203262313,-0.8289495015\F,0,-3.7404047405,-0
 .0319804813,1.4212395931\C,0,1.4366735695,-0.12080108,-0.2758252851\C,
 0,2.2780931492,0.1327382384,0.816820234\C,0,2.035930363,-0.416958208,-
 1.5079782355\C,0,3.6607843414,0.085408052,0.6914995265\H,0,1.837715139
 3,0.3707591255,1.7886414926\C,0,3.4179334359,-0.4629202991,-1.64963430
 85\H,0,1.4032732588,-0.6105865965,-2.378192459\C,0,4.2646849863,-0.218
 7763031,-0.5480436721\H,0,4.3056067999,0.289857988,1.5482276294\H,0,3.
 8622202446,-0.6915561005,-2.6211239798\N,0,5.6262170133,-0.3084596204,
 -0.6554117251\H,0,6.0254538665,-0.2641926194,-1.5855731647\H,0,6.17657
 79754,0.1091148865,0.0947931346\O,0,6.8316870685,0.893539784,1.7882861
 089\H,0,6.6001612518,0.3228855341,2.53432714\H,0,6.3270539902,1.701163
 2081,1.9588198093\C,0,0.9872788624,-3.2158586658,-0.2641175754\H,0,1.4
 291162245,-3.0521985908,-1.259810604\H,0,1.6714662452,-2.7555861745,0.
 4641903142\H,0,0.9588196263,-4.2988954886,-0.0817988401\C,0,-4.1038474
 257,-2.8312850719,0.1262276363\H,0,-4.532927478,-2.3826847738,1.036873
 0672\H,0,-4.6647312146,-2.4114629376,-0.7252345612\H,0,-4.2516127543,-
 3.9170488096,0.1519268423\C,0,1.1815129311,2.9969161343,-0.2525673762\
 H,0,1.8100527067,2.8043583807,0.6313265474\H,0,1.6687360509,2.49512305
 56,-1.1018047802\H,0,1.1829527176,4.0797289303,-0.438170477\C,0,-3.896
 4357913,2.9277864001,0.4062630931\H,0,-4.4999401248,2.6094596939,-0.46
 01349977\H,0,-4.3382455888,2.4429302648,1.291614782\H,0,-3.969415911,4
 .0162689947,0.5123192938\\Version=ES64L-G16RevA.03\State=1-A\HF=-1200.
 1705479\RMSD=2.607e-09\Dipole=2.8069543,0.5100458,0.4576844\Quadrupole
 =-4.0564454,8.0752394,-4.018794,5.9844949,6.2782527,3.8766607\PG=C01 [
 X(C19H22B1F2N3O1)]\\@


 LENDING MONEY TO FRIENDS CAUSES THEM TO LOSE THEIR MEMORIES.

    --  PETER'S THEORY OF RECIPROCAL INHIBITION OF FISCAL RECALL
 Job cpu time:       0 days 12 hours 24 minutes 46.7 seconds.
 Elapsed time:       0 days  0 hours 11 minutes 48.5 seconds.
 File lengths (MBytes):  RWF=   1718 Int=      0 D2E=      0 Chk=     75 Scr=      1
 Normal termination of Gaussian 16 at Fri Dec 26 11:50:19 2025.
