 Entering Gaussian System, Link 0=g16
 Initial command:
 /home/users/sutd/1008721/g16/l1.exe "/home/users/sutd/1008721/scratch/g16/scratch/Gau-1965426.inp" -scrdir="/home/users/sutd/1008721/scratch/g16/scratch/"
 Entering Link 1 = /home/users/sutd/1008721/g16/l1.exe PID=   1965427.
  
 Copyright (c) 1988-2019, Gaussian, Inc.  All Rights Reserved.
  
 This is part of the Gaussian(R) 16 program.  It is based on
 the Gaussian(R) 09 system (copyright 2009, Gaussian, Inc.),
 the Gaussian(R) 03 system (copyright 2003, Gaussian, Inc.),
 the Gaussian(R) 98 system (copyright 1998, Gaussian, Inc.),
 the Gaussian(R) 94 system (copyright 1995, Gaussian, Inc.),
 the Gaussian 92(TM) system (copyright 1992, Gaussian, Inc.),
 the Gaussian 90(TM) system (copyright 1990, Gaussian, Inc.),
 the Gaussian 88(TM) system (copyright 1988, Gaussian, Inc.),
 the Gaussian 86(TM) system (copyright 1986, Carnegie Mellon
 University), and the Gaussian 82(TM) system (copyright 1983,
 Carnegie Mellon University). Gaussian is a federally registered
 trademark of Gaussian, Inc.
  
 This software contains proprietary and confidential information,
 including trade secrets, belonging to Gaussian, Inc.
  
 This software is provided under written license and may be
 used, copied, transmitted, or stored only in accord with that
 written license.
  
 The following legend is applicable only to US Government
 contracts under FAR:
  
                    RESTRICTED RIGHTS LEGEND
  
 Use, reproduction and disclosure by the US Government is
 subject to restrictions as set forth in subparagraphs (a)
 and (c) of the Commercial Computer Software - Restricted
 Rights clause in FAR 52.227-19.
  
 Gaussian, Inc.
 340 Quinnipiac St., Bldg. 40, Wallingford CT 06492
  
  
 ---------------------------------------------------------------
 Warning -- This program may not be used in any manner that
 competes with the business of Gaussian, Inc. or will provide
 assistance to any competitor of Gaussian, Inc.  The licensee
 of this program is prohibited from giving any competitor of
 Gaussian, Inc. access to this program.  By using this program,
 the user acknowledges that Gaussian, Inc. is engaged in the
 business of creating and licensing software in the field of
 computational chemistry and represents and warrants to the
 licensee that it is not a competitor of Gaussian, Inc. and that
 it will not use this program in any manner prohibited above.
 ---------------------------------------------------------------
  

 Cite this work as:
 Gaussian 16, Revision C.01,
 M. J. Frisch, G. W. Trucks, H. B. Schlegel, G. E. Scuseria, 
 M. A. Robb, J. R. Cheeseman, G. Scalmani, V. Barone, 
 G. A. Petersson, H. Nakatsuji, X. Li, M. Caricato, A. V. Marenich, 
 J. Bloino, B. G. Janesko, R. Gomperts, B. Mennucci, H. P. Hratchian, 
 J. V. Ortiz, A. F. Izmaylov, J. L. Sonnenberg, D. Williams-Young, 
 F. Ding, F. Lipparini, F. Egidi, J. Goings, B. Peng, A. Petrone, 
 T. Henderson, D. Ranasinghe, V. G. Zakrzewski, J. Gao, N. Rega, 
 G. Zheng, W. Liang, M. Hada, M. Ehara, K. Toyota, R. Fukuda, 
 J. Hasegawa, M. Ishida, T. Nakajima, Y. Honda, O. Kitao, H. Nakai, 
 T. Vreven, K. Throssell, J. A. Montgomery, Jr., J. E. Peralta, 
 F. Ogliaro, M. J. Bearpark, J. J. Heyd, E. N. Brothers, K. N. Kudin, 
 V. N. Staroverov, T. A. Keith, R. Kobayashi, J. Normand, 
 K. Raghavachari, A. P. Rendell, J. C. Burant, S. S. Iyengar, 
 J. Tomasi, M. Cossi, J. M. Millam, M. Klene, C. Adamo, R. Cammi, 
 J. W. Ochterski, R. L. Martin, K. Morokuma, O. Farkas, 
 J. B. Foresman, and D. J. Fox, Gaussian, Inc., Wallingford CT, 2019.
 
 ******************************************
 Gaussian 16:  ES64L-G16RevC.01  3-Jul-2019
                 8-Oct-2025 
 ******************************************
 %nprocshared=32
 Will use up to   32 processors via shared memory.
 %mem=64GB
 %oldchk=05BDP-NH2_ethanol_wb97xd_wb97xd_wb97xd.chk
 %chk=06BDP-NH2_ethanol_wb97xd_wb97xd_wb97xd.chk
 Copying data from "05BDP-NH2_ethanol_wb97xd_wb97xd_wb97xd.chk" to current chk file "06BDP-NH2_ethanol_wb97xd_wb97xd_wb97xd.chk"
 IOpt=  2 FromEx=T IUOpen= 4 IOptOp= 5 NList=   0 IFRang= 0 IUIn= 4 IUOut= 2.
 ----------------------------------------------------------------------
 # wb97xd/def2tzvp geom=check guess=read TD=(Read, NStates=3, Root=1) S
 CRF=(SMD, solvent=ethanol, CorrectedLR, NonEq=Save)
 ----------------------------------------------------------------------
 1/29=2,30=1,38=1,172=1/1;
 2/12=2,40=1/2;
 3/5=44,7=101,11=9,14=-4,25=1,30=1,70=9032201,71=1,72=4,74=-58,116=-2/1,2,3,8;
 4/5=1/1;
 5/5=2,38=6,53=4/2;
 8/6=1,10=1,107=1,108=3/1;
 9/8=1,15=1,41=3,42=1,49=3,70=2,73=22/14;
 10/5=4,13=10,28=1,74=20/2;
 6/7=2,8=2,9=2,10=2,22=-1/1;
 99/5=1,9=1/99;
 ------------------------------------
 BDP-NH2_ethanol_wb97xd_wb97xd_wb97xd
 ------------------------------------
 Structure from the checkpoint file:  "06BDP-NH2_ethanol_wb97xd_wb97xd_wb97xd.chk"
 Charge =  0 Multiplicity = 1
 Z-Matrix found in chk file.
 C,0,0.619712,-1.234566,-0.02244
 C,0,0.613006,1.231537,-0.024903
 C,0,-0.099937,-0.003447,-0.016017
 C,0,0.163863,-2.559573,-0.041921
 C,0,1.317103,-3.383808,-0.049379
 C,0,2.414782,-2.540312,-0.033873
 H,0,1.34719,-4.472276,-0.066536
 C,0,2.400911,2.547047,-0.037965
 C,0,0.149925,2.554037,-0.046256
 C,0,1.298662,3.384521,-0.054812
 H,0,1.322824,4.473113,-0.073376
 N,0,1.998018,-1.240122,-0.017285
 N,0,1.991268,1.244621,-0.019664
 B,0,2.901976,0.004777,0.03998
 F,0,3.657691,0.00792,1.231773
 F,0,3.807759,0.006231,-1.039343
 C,0,-1.552619,-0.006641,-0.005211
 C,0,-2.29548,-0.011832,-1.231053
 C,0,-2.273178,0.000711,1.234016
 C,0,-3.656205,-0.010029,-1.230298
 H,0,-1.745077,-0.017312,-2.173251
 C,0,-3.633493,0.003578,1.257804
 H,0,-1.705671,0.00464,2.166017
 C,0,-4.367247,-0.001637,0.020467
 H,0,-4.227318,-0.014227,-2.160111
 H,0,-4.18851,0.009878,2.197343
 H,0,-0.895241,2.860321,-0.058435
 H,0,3.46112,2.796623,-0.037343
 H,0,-0.879604,-2.871596,-0.053823
 H,0,3.476336,-2.784104,-0.033237
 N,0,-5.682188,0.001378,0.033337
 H,0,-6.197913,0.007423,0.909946
 H,0,-6.215583,-0.002375,-0.832631
 Recover connectivity data from disk.
                          Input orientation:                          
 ---------------------------------------------------------------------
 Center     Atomic      Atomic             Coordinates (Angstroms)
 Number     Number       Type             X           Y           Z
 ---------------------------------------------------------------------
      1          6           0        0.619712   -1.234566   -0.022440
      2          6           0        0.613006    1.231537   -0.024903
      3          6           0       -0.099937   -0.003447   -0.016017
      4          6           0        0.163863   -2.559573   -0.041921
      5          6           0        1.317103   -3.383808   -0.049379
      6          6           0        2.414782   -2.540312   -0.033873
      7          1           0        1.347190   -4.472276   -0.066536
      8          6           0        2.400911    2.547047   -0.037965
      9          6           0        0.149925    2.554037   -0.046256
     10          6           0        1.298662    3.384521   -0.054812
     11          1           0        1.322824    4.473113   -0.073376
     12          7           0        1.998018   -1.240122   -0.017285
     13          7           0        1.991268    1.244621   -0.019664
     14          5           0        2.901976    0.004777    0.039980
     15          9           0        3.657691    0.007920    1.231773
     16          9           0        3.807759    0.006231   -1.039343
     17          6           0       -1.552619   -0.006641   -0.005211
     18          6           0       -2.295480   -0.011832   -1.231053
     19          6           0       -2.273178    0.000711    1.234016
     20          6           0       -3.656205   -0.010029   -1.230298
     21          1           0       -1.745077   -0.017312   -2.173251
     22          6           0       -3.633493    0.003578    1.257804
     23          1           0       -1.705671    0.004640    2.166017
     24          6           0       -4.367247   -0.001637    0.020467
     25          1           0       -4.227318   -0.014227   -2.160111
     26          1           0       -4.188510    0.009878    2.197343
     27          1           0       -0.895241    2.860321   -0.058435
     28          1           0        3.461120    2.796623   -0.037343
     29          1           0       -0.879604   -2.871596   -0.053823
     30          1           0        3.476336   -2.784104   -0.033237
     31          7           0       -5.682188    0.001378    0.033337
     32          1           0       -6.197913    0.007423    0.909946
     33          1           0       -6.215583   -0.002375   -0.832631
 ---------------------------------------------------------------------
                    Distance matrix (angstroms):
                    1          2          3          4          5
     1  C    0.000000
     2  C    2.466113   0.000000
     3  C    1.426040   1.426027   0.000000
     4  C    1.401364   3.817661   2.569833   0.000000
     5  C    2.259717   4.668807   3.665509   1.417527   0.000000
     6  C    2.219770   4.180110   3.572088   2.251016   1.384422
     7  H    3.318725   5.751021   4.697570   2.249289   1.089019
     8  C    4.180133   2.219762   3.572078   5.575120   6.029080
     9  C    3.817693   1.401394   2.569838   5.113631   6.051472
    10  C    4.668831   2.259725   3.665503   6.051462   6.768356
    11  H    5.751049   3.318736   4.697566   7.127612   7.856960
    12  N    1.378327   2.833269   2.435320   2.259576   2.249459
    13  N    2.833292   1.378334   2.435329   4.220402   4.677364
    14  B    2.597806   2.597794   3.002446   3.752314   3.741967
    15  F    3.513707   3.513770   3.959404   4.518977   4.315498
    16  F    3.568937   3.568881   4.039477   4.566857   4.321546
    17  C    2.495420   2.494675   1.452726   3.076543   4.431987
    18  C    3.384401   3.385270   2.509341   3.735423   5.081076
    19  C    3.387241   3.380809   2.507105   3.757957   5.098254
    20  C    4.608891   4.606585   3.757867   4.743979   6.124602
    21  H    3.420515   3.425723   2.712994   3.827494   5.022059
    22  C    4.611050   4.602822   3.756153   4.762241   6.139341
    23  H    3.425256   3.417846   2.709192   3.865920   5.052398
    24  C    5.137287   5.130857   4.267466   5.203642   6.614816
    25  H    5.436227   5.435051   4.651078   5.499817   6.822747
    26  H    5.440136   5.430045   4.649255   5.528068   6.846652
    27  H    4.366289   2.220106   2.972453   5.522429   6.624477
    28  H    4.931968   3.249831   4.530119   6.289735   6.541764
    29  H    2.220090   4.366282   2.972472   1.089185   2.255638
    30  H    3.249844   4.931947   4.530130   3.320085   2.241025
    31  N    6.422197   6.414527   5.582471   6.382824   7.775371
    32  H    6.992274   6.982909   6.167888   6.925873   8.300375
    33  H    6.992565   6.986028   6.169926   6.918223   8.293909
                    6          7          8          9         10
     6  C    0.000000
     7  H    2.207556   0.000000
     8  C    5.087380   7.098031   0.000000
     9  C    5.575134   7.127617   2.251012   0.000000
    10  C    6.029080   7.856956   1.384413   1.417524   0.000000
    11  H    7.098032   8.945425   2.207545   2.249284   1.089018
    12  N    1.365453   3.297396   3.808595   4.220418   4.677374
    13  N    3.808580   5.753255   1.365451   2.259606   2.249469
    14  B    2.592352   4.740539   2.592350   3.752326   3.741961
    15  F    3.104862   5.205399   3.104657   4.518904   4.315293
    16  F    3.071846   5.201709   3.072088   4.566978   4.321772
    17  C    4.707503   5.324899   4.706676   3.075291   4.430829
    18  C    5.478414   5.875432   5.479727   3.737303   5.082973
    19  C    5.480995   5.899671   5.472556   3.745664   5.086186
    20  C    6.685106   6.804407   6.681987   4.739516   6.120085
    21  H    5.314781   5.817823   5.322086   3.837574   5.032355
    22  C    6.687409   6.826005   6.675499   4.745489   6.122082
    23  H    5.319251   5.860634   5.308991   3.851858   5.038025
    24  C    7.241805   7.255961   7.232369   5.190449   6.601080
    25  H    7.417512   7.438575   7.415999   5.497692   6.820574
    26  H    7.421944   7.473876   7.406369   5.507132   6.824183
    27  H    6.334327   7.667825   3.311069   1.089188   2.255662
    28  H    5.438539   7.570102   1.089189   3.320081   2.241016
    29  H    3.311061   2.742435   6.334329   5.522452   6.624488
    30  H    1.089189   2.717406   5.438541   6.289748   6.541763
    31  N    8.486791   8.332809   8.474786   6.366785   7.757944
    32  H    9.031072   8.828918   9.015986   6.906129   8.278538
    33  H    9.031187   8.818302   9.020810   6.904587   8.278885
                   11         12         13         14         15
    11  H    0.000000
    12  N    5.753268   0.000000
    13  N    3.297402   2.484753   0.000000
    14  B    4.740527   1.539543   1.539532   0.000000
    15  F    5.205090   2.423277   2.423322   1.411200   0.000000
    16  F    5.202022   2.423461   2.423426   1.409036   2.276069
    17  C    5.323628   3.758809   3.758324   4.454839   5.355154
    18  C    5.877676   4.627748   4.628428   5.350640   6.442526
    19  C    5.885821   4.620448   4.615683   5.311116   5.930874
    20  C    6.799100   5.912256   5.910477   6.680087   7.717201
    21  H    5.829701   4.489344   4.493405   5.147230   6.386292
    22  C    6.805429   5.906484   5.900004   6.647966   7.291232
    23  H    5.844135   4.475886   4.470136   5.074490   5.444123
    24  C    7.239413   6.484741   6.479621   7.269252   8.115848
    25  H    7.436045   6.696964   6.696045   7.461072   8.583632
    26  H    7.446572   6.688812   6.680521   7.411426   7.905391
    27  H    2.742469   5.018593   3.308160   4.752123   5.525398
    28  H    2.717393   4.293761   2.137636   2.848337   3.070205
    29  H    7.667843   3.308134   5.018597   4.752122   5.525524
    30  H    7.570101   2.137653   4.293744   2.848352   3.070592
    31  N    8.311317   7.780067   7.773699   8.584167   9.416455
    32  H    8.801750   8.342027   8.334118   9.141380   9.860857
    33  H    8.799661   8.346260   8.340762   9.159224  10.086794
                   16         17         18         19         20
    16  F    0.000000
    17  C    5.459235   0.000000
    18  C    6.106276   1.433373   0.000000
    19  C    6.491994   1.433507   2.465202   0.000000
    20  C    7.466424   2.434322   1.360726   2.825902   0.000000
    21  H    5.667476   2.176592   1.091197   3.447997   2.131109
    22  C    7.787755   2.434204   2.825761   1.360526   2.488243
    23  H    6.377480   2.176645   3.447931   1.091195   3.916600
    24  C    8.243421   2.814750   2.420460   2.420296   1.438772
    25  H    8.112891   3.434773   2.143631   3.916502   1.091210
    26  H    8.626498   3.435031   3.916367   2.143964   3.468785
    27  H    5.588043   2.941845   3.403669   3.427318   4.151517
    28  H    2.985038   5.744293   6.515428   6.505048   7.743175
    29  H    5.587890   2.943345   3.401298   3.442488   4.157183
    30  H    2.984637   5.745039   6.514147   6.512913   7.746069
    31  N    9.550380   4.129757   3.615058   3.614274   2.387784
    32  H   10.193782   4.734603   4.451206   3.938097   3.322834
    33  H   10.025477   4.735808   3.940309   4.451247   2.590099
                   21         22         23         24         25
    21  H    0.000000
    22  C    3.916464   0.000000
    23  H    4.339502   2.131044   0.000000
    24  C    3.418833   1.438550   3.418686   0.000000
    25  H    2.482278   3.469162   5.007439   2.185099   0.000000
    26  H    5.007314   1.091246   2.483042   2.184232   4.357693
    27  H    3.670891   4.170311   3.709434   4.500206   4.876762
    28  H    6.291647   7.733824   6.272615   8.313659   8.456897
    29  H    3.658956   4.191765   3.725964   4.517282   4.879364
    30  H    6.284740   7.745168   6.282277   8.322668   8.458256
    31  N    4.513338   2.386729   4.512319   1.315007   2.632129
    32  H    5.416130   2.587908   4.664543   2.035336   3.648145
    33  H    4.667216   3.322220   5.415833   2.035712   2.390720
                   26         27         28         29         30
    26  H    0.000000
    27  H    4.905016   0.000000
    28  H    8.442548   4.356878   0.000000
    29  H    4.931480   5.731940   7.139388   0.000000
    30  H    8.457641   7.139388   5.580749   4.356867   0.000000
    31  N    2.629462   5.576454   9.561301   5.596998   9.572978
    32  H    2.386440   6.098780  10.098213   6.123889  10.113027
    33  H    3.645534   6.091014  10.104724   6.108326  10.114857
                   31         32         33
    31  N    0.000000
    32  H    1.017080   0.000000
    33  H    1.017067   1.742694   0.000000
 Stoichiometry    C15H12BF2N3
 Framework group  C1[X(C15H12BF2N3)]
 Deg. of freedom    93
 Full point group                 C1      NOp   1
 Largest Abelian subgroup         C1      NOp   1
 Largest concise Abelian subgroup C1      NOp   1
                         Standard orientation:                         
 ---------------------------------------------------------------------
 Center     Atomic      Atomic             Coordinates (Angstroms)
 Number     Number       Type             X           Y           Z
 ---------------------------------------------------------------------
      1          6           0        0.619712   -1.234566   -0.022440
      2          6           0        0.613006    1.231537   -0.024903
      3          6           0       -0.099937   -0.003447   -0.016017
      4          6           0        0.163863   -2.559573   -0.041921
      5          6           0        1.317103   -3.383808   -0.049379
      6          6           0        2.414782   -2.540312   -0.033873
      7          1           0        1.347190   -4.472276   -0.066536
      8          6           0        2.400911    2.547047   -0.037965
      9          6           0        0.149925    2.554037   -0.046256
     10          6           0        1.298662    3.384521   -0.054812
     11          1           0        1.322824    4.473113   -0.073376
     12          7           0        1.998018   -1.240122   -0.017285
     13          7           0        1.991268    1.244621   -0.019664
     14          5           0        2.901976    0.004777    0.039980
     15          9           0        3.657691    0.007920    1.231773
     16          9           0        3.807759    0.006231   -1.039343
     17          6           0       -1.552619   -0.006641   -0.005211
     18          6           0       -2.295480   -0.011832   -1.231053
     19          6           0       -2.273178    0.000711    1.234016
     20          6           0       -3.656205   -0.010029   -1.230298
     21          1           0       -1.745077   -0.017312   -2.173251
     22          6           0       -3.633493    0.003578    1.257804
     23          1           0       -1.705671    0.004640    2.166017
     24          6           0       -4.367247   -0.001637    0.020467
     25          1           0       -4.227318   -0.014227   -2.160111
     26          1           0       -4.188510    0.009878    2.197343
     27          1           0       -0.895241    2.860321   -0.058435
     28          1           0        3.461120    2.796623   -0.037343
     29          1           0       -0.879604   -2.871596   -0.053823
     30          1           0        3.476336   -2.784104   -0.033237
     31          7           0       -5.682188    0.001378    0.033337
     32          1           0       -6.197913    0.007423    0.909946
     33          1           0       -6.215583   -0.002375   -0.832631
 ---------------------------------------------------------------------
 Rotational constants (GHZ):           0.5722705           0.2134349           0.1705399
 Standard basis: def2TZVP (5D, 7F)
 There are   828 symmetry adapted cartesian basis functions of A   symmetry.
 There are   723 symmetry adapted basis functions of A   symmetry.
   723 basis functions,  1167 primitive gaussians,   828 cartesian basis functions
    73 alpha electrons       73 beta electrons
       nuclear repulsion energy      1586.4194370545 Hartrees.
 NAtoms=   33 NActive=   33 NUniq=   33 SFac= 1.00D+00 NAtFMM=   60 NAOKFM=F Big=F
 Integral buffers will be    131072 words long.
 Raffenetti 1 integral format.
 Two-electron integral symmetry is turned on.
 Nuclear repulsion after empirical dispersion term =     1586.3946405348 Hartrees.
 ------------------------------------------------------------------------------
 Polarizable Continuum Model (PCM)
 =================================
 Model                : PCM.
 Atomic radii         : SMD-Coulomb.
 Polarization charges : Total charges.
 Charge compensation  : None.
 Solution method      : On-the-fly selection.
 Cavity type          : VdW (van der Waals Surface) (Alpha=1.000).
 Cavity algorithm     : GePol (No added spheres)
                        Default sphere list used, NSphG=   33.
                        Lebedev-Laikov grids with approx.  5.0 points / Ang**2.
                        Smoothing algorithm: York/Karplus (Gamma=1.0000).
                        Polarization charges: spherical gaussians, with
                                              point-specific exponents (IZeta= 3).
                        Self-potential: point-specific (ISelfS= 7).
                        Self-field    : sphere-specific E.n sum rule (ISelfD= 2).
 1st derivatives      : Analytical E(r).r(x)/FMM algorithm (CHGder, D1EAlg=3).
                        Cavity 1st derivative terms included.
 Solvent              : Ethanol, Eps=  24.852000 Eps(inf)=   1.852593
 ------------------------------------------------------------------------------
 ------------------------------------------------------------------------------
 Atomic radii for non-electrostatic terms: SMD-CDS.
 ------------------------------------------------------------------------------
 Nuclear repulsion after PCM non-electrostatic terms =     1586.3939746656 Hartrees.
 One-electron integrals computed using PRISM.
   1 Symmetry operations used in ECPInt.
 ECPInt:  NShTT=   39060 NPrTT=  121776 LenC2=   34428 LenP2D=   76792.
 LDataN:  DoStor=T MaxTD1= 6 Len=  172
 NBasis=   723 RedAO= T EigKep=  7.36D-06  NBF=   723
 NBsUse=   723 1.00D-06 EigRej= -1.00D+00 NBFU=   723
 Initial guess from the checkpoint file:  "06BDP-NH2_ethanol_wb97xd_wb97xd_wb97xd.chk"
 B after Tr=     0.000000    0.000000    0.000000
         Rot=    1.000000   -0.000000    0.000000   -0.000000 Ang=   0.00 deg.
 Requested convergence on RMS density matrix=1.00D-08 within 128 cycles.
 Requested convergence on MAX density matrix=1.00D-06.
 Requested convergence on             energy=1.00D-06.
 No special actions if energy rises.
 Inv3:  Mode=1 IEnd=    20326827.
 Iteration    1 A*A^-1 deviation from unit magnitude is 5.44D-15 for   2593.
 Iteration    1 A*A^-1 deviation from orthogonality  is 2.49D-15 for   1916    338.
 Iteration    1 A^-1*A deviation from unit magnitude is 5.44D-15 for   2593.
 Iteration    1 A^-1*A deviation from orthogonality  is 2.34D-14 for   1619   1583.
 Error on total polarization charges =  0.04696
 SCF Done:  E(RwB97XD) =  -967.854355041     A.U. after    1 cycles
            NFock=  1  Conv=0.13D-08     -V/T= 2.0051
 SMD-CDS (non-electrostatic) energy       (kcal/mol) =      -0.42
 (included in total energy above)
 DoSCS=F DFT=T ScalE2(SS,OS)=  1.000000  1.000000
 ExpMin= 6.06D-02 ExpMax= 3.55D+04 ExpMxC= 1.21D+03 IAcc=3 IRadAn=         5 AccDes= 0.00D+00
 HarFok:  IExCor=  205 AccDes= 0.00D+00 IRadAn=         5 IDoV=-2 UseB2=F ITyADJ=14
 ICtDFT= 12500011 ScaDFX=  1.000000  1.000000  1.000000  1.000000
 GSVD:  LWork=        -609 too small for GESVD, short by        2520 words or        2520 for optimal perf.
 Range of M.O.s used for correlation:    22   723
 NBasis=   723 NAE=    73 NBE=    73 NFC=    21 NFV=     0
 NROrb=    702 NOA=    52 NOB=    52 NVA=   650 NVB=   650

 **** Warning!!: The largest alpha MO coefficient is  0.74917682D+02

 NEqPCM:  Using equilibrium solvation (IEInf=0, Eps=  24.8520, EpsInf=   1.8526)
 Orbital symmetries:
       Occupied  (A) (A) (A) (A) (A) (A) (A) (A) (A) (A) (A) (A)
                 (A) (A) (A) (A) (A) (A) (A) (A) (A) (A) (A) (A)
                 (A) (A) (A) (A) (A) (A) (A) (A) (A) (A) (A) (A)
                 (A) (A) (A) (A) (A) (A) (A) (A) (A) (A) (A) (A)
                 (A) (A) (A) (A) (A) (A) (A) (A) (A) (A) (A) (A)
                 (A) (A) (A) (A) (A) (A) (A) (A) (A) (A) (A) (A)
                 (A)
       Virtual   (A) (A) (A) (A) (A) (A) (A) (A) (A) (A) (A) (A)
                 (A) (A) (A) (A) (A) (A) (A) (A) (A) (A) (A) (A)
                 (A) (A) (A) (A) (A) (A) (A) (A) (A) (A) (A) (A)
                 (A) (A) (A) (A) (A) (A) (A) (A) (A) (A) (A) (A)
                 (A) (A) (A) (A) (A) (A) (A) (A) (A) (A) (A) (A)
                 (A) (A) (A) (A) (A) (A) (A) (A) (A) (A) (A) (A)
                 (A) (A) (A) (A) (A) (A) (A) (A) (A) (A) (A) (A)
                 (A) (A) (A) (A) (A) (A) (A) (A) (A) (A) (A) (A)
                 (A) (A) (A) (A) (A) (A) (A) (A) (A) (A) (A) (A)
                 (A) (A) (A) (A) (A) (A) (A) (A) (A) (A) (A) (A)
                 (A) (A) (A) (A) (A) (A) (A) (A) (A) (A) (A) (A)
                 (A) (A) (A) (A) (A) (A) (A) (A) (A) (A) (A) (A)
                 (A) (A) (A) (A) (A) (A) (A) (A) (A) (A) (A) (A)
                 (A) (A) (A) (A) (A) (A) (A) (A) (A) (A) (A) (A)
                 (A) (A) (A) (A) (A) (A) (A) (A) (A) (A) (A) (A)
                 (A) (A) (A) (A) (A) (A) (A) (A) (A) (A) (A) (A)
                 (A) (A) (A) (A) (A) (A) (A) (A) (A) (A) (A) (A)
                 (A) (A) (A) (A) (A) (A) (A) (A) (A) (A) (A) (A)
                 (A) (A) (A) (A) (A) (A) (A) (A) (A) (A) (A) (A)
                 (A) (A) (A) (A) (A) (A) (A) (A) (A) (A) (A) (A)
                 (A) (A) (A) (A) (A) (A) (A) (A) (A) (A) (A) (A)
                 (A) (A) (A) (A) (A) (A) (A) (A) (A) (A) (A) (A)
                 (A) (A) (A) (A) (A) (A) (A) (A) (A) (A) (A) (A)
                 (A) (A) (A) (A) (A) (A) (A) (A) (A) (A) (A) (A)
                 (A) (A) (A) (A) (A) (A) (A) (A) (A) (A) (A) (A)
                 (A) (A) (A) (A) (A) (A) (A) (A) (A) (A) (A) (A)
                 (A) (A) (A) (A) (A) (A) (A) (A) (A) (A) (A) (A)
                 (A) (A) (A) (A) (A) (A) (A) (A) (A) (A) (A) (A)
                 (A) (A) (A) (A) (A) (A) (A) (A) (A) (A) (A) (A)
                 (A) (A) (A) (A) (A) (A) (A) (A) (A) (A) (A) (A)
                 (A) (A) (A) (A) (A) (A) (A) (A) (A) (A) (A) (A)
                 (A) (A) (A) (A) (A) (A) (A) (A) (A) (A) (A) (A)
                 (A) (A) (A) (A) (A) (A) (A) (A) (A) (A) (A) (A)
                 (A) (A) (A) (A) (A) (A) (A) (A) (A) (A) (A) (A)
                 (A) (A) (A) (A) (A) (A) (A) (A) (A) (A) (A) (A)
                 (A) (A) (A) (A) (A) (A) (A) (A) (A) (A) (A) (A)
                 (A) (A) (A) (A) (A) (A) (A) (A) (A) (A) (A) (A)
                 (A) (A) (A) (A) (A) (A) (A) (A) (A) (A) (A) (A)
                 (A) (A) (A) (A) (A) (A) (A) (A) (A) (A) (A) (A)
                 (A) (A) (A) (A) (A) (A) (A) (A) (A) (A) (A) (A)
                 (A) (A) (A) (A) (A) (A) (A) (A) (A) (A) (A) (A)
                 (A) (A) (A) (A) (A) (A) (A) (A) (A) (A) (A) (A)
                 (A) (A) (A) (A) (A) (A) (A) (A) (A) (A) (A) (A)
                 (A) (A) (A) (A) (A) (A) (A) (A) (A) (A) (A) (A)
                 (A) (A) (A) (A) (A) (A) (A) (A) (A) (A) (A) (A)
                 (A) (A) (A) (A) (A) (A) (A) (A) (A) (A) (A) (A)
                 (A) (A) (A) (A) (A) (A) (A) (A) (A) (A) (A) (A)
                 (A) (A) (A) (A) (A) (A) (A) (A) (A) (A) (A) (A)
                 (A) (A) (A) (A) (A) (A) (A) (A) (A) (A) (A) (A)
                 (A) (A) (A) (A) (A) (A) (A) (A) (A) (A) (A) (A)
                 (A) (A) (A) (A) (A) (A) (A) (A) (A) (A) (A) (A)
                 (A) (A) (A) (A) (A) (A) (A) (A) (A) (A) (A) (A)
                 (A) (A) (A) (A) (A) (A) (A) (A) (A) (A) (A) (A)
                 (A) (A) (A) (A) (A) (A) (A) (A) (A) (A) (A) (A)
                 (A) (A)
 Generating guess from checkpoint file densities.
 Convergence on wavefunction:    0.000001000000000
 Iteration     1 Dimension     6 NMult     0 NNew      6
 CISAX will form     6 AO SS matrices at one time.
 Iteration     2 Dimension    12 NMult     6 NNew      6
 Iteration     3 Dimension    18 NMult    12 NNew      6
 Iteration     4 Dimension    24 NMult    18 NNew      6
 Iteration     5 Dimension    30 NMult    24 NNew      6
 Iteration     6 Dimension    36 NMult    30 NNew      6
 Iteration     7 Dimension    42 NMult    36 NNew      6
 Iteration     8 Dimension    48 NMult    42 NNew      6
 Iteration     9 Dimension    52 NMult    48 NNew      4
 Iteration    10 Dimension    56 NMult    52 NNew      4
 Iteration    11 Dimension    60 NMult    56 NNew      4
 Iteration    12 Dimension    62 NMult    60 NNew      2
 Iteration    13 Dimension    64 NMult    62 NNew      2
 Iteration    14 Dimension    66 NMult    64 NNew      2
 Iteration    15 Dimension    68 NMult    66 NNew      2
 PCM Corrected Linear-Response:
 The state of interest is root number   1
 Excitation energy =    2.3233 eV, Total energy =  -967.768975808    
 Recompute the excitation energies using the linear response reaction field.
 Convergence on wavefunction:    0.000001000000000
 Iteration     1 Dimension     6 NMult     0 NNew      6
 Iteration     2 Dimension    12 NMult     6 NNew      6
 Iteration     3 Dimension    18 NMult    12 NNew      6
 Iteration     4 Dimension    24 NMult    18 NNew      6
 Iteration     5 Dimension    30 NMult    24 NNew      6
 Iteration     6 Dimension    36 NMult    30 NNew      6
 Iteration     7 Dimension    42 NMult    36 NNew      6
 Iteration     8 Dimension    46 NMult    42 NNew      4
 Iteration     9 Dimension    50 NMult    46 NNew      4
 Iteration    10 Dimension    54 NMult    50 NNew      4
 Iteration    11 Dimension    56 NMult    54 NNew      2
 Iteration    12 Dimension    58 NMult    56 NNew      2
 Iteration    13 Dimension    60 NMult    58 NNew      2
 Iteration    14 Dimension    62 NMult    60 NNew      2
 ***********************************************************************
 Excited states from <AA,BB:AA,BB> singles matrix:
 ***********************************************************************
 
 Ground to excited state transition densities written to RWF  633
 Ground to excited state transition electric dipole moments (Au):
       state          X           Y           Z        Dip. S.      Osc.
         1         0.0225     -0.0776     -0.0011      0.0065      0.0004
         2        -0.0092      3.6248     -0.0032     13.1389      0.8396
         3         0.0016     -0.7245      0.0007      0.5250      0.0468
 Ground to excited state transition velocity dipole moments (Au):
       state          X           Y           Z        Dip. S.      Osc.
         1        -0.0019      0.0066      0.0001      0.0000      0.0004
         2         0.0009     -0.3454      0.0003      0.1193      0.8297
         3        -0.0002      0.0972     -0.0001      0.0094      0.0470
 Ground to excited state transition magnetic dipole moments (Au):
       state          X           Y           Z
         1        -0.0866      0.0007     -0.0023
         2        -0.0157      0.0000      0.3882
         3        -0.0033      0.0014      1.4072
 Ground to excited state transition velocity quadrupole moments (Au):
       state          XX          YY          ZZ          XY          XZ          YZ
         1         0.0098     -0.0048      0.0004      0.0195     -0.0006     -0.0035
         2         0.0061     -0.0017     -0.0000     -1.0306      0.0007      0.0276
         3         0.0009     -0.0024     -0.0000     -0.2656      0.0004     -0.0076
 <0|del|b> * <b|rxdel|0> + <0|del|b> * <b|delr+rdel|0>
 Rotatory Strengths (R) in cgs (10**-40 erg-esu-cm/Gauss)
       state          XX          YY          ZZ    R(velocity)    E-M Angle
         1         0.0413      0.7019      0.6585      0.4673       73.44
         2         0.1305      1.6246     -1.0158      0.2464       89.96
         3        -0.0468     -0.4369      0.4399     -0.0146       90.00
 1/2[<0|r|b>*<b|rxdel|0> + (<0|rxdel|b>*<b|r|0>)*]
 Rotatory Strengths (R) in cgs (10**-40 erg-esu-cm/Gauss)
       state          XX          YY          ZZ     R(length)
         1         1.3763      0.0383     -0.0018      0.4709
         2        -0.1027     -0.0270      0.8742      0.2482
         3         0.0036      0.6965     -0.7410     -0.0137
  1/2[<0|del|b>*<b|r|0> + (<0|r|b>*<b|del|0>)*] (Au)
       state          X           Y           Z        Dip. S.   Osc.(frdel)
         1        -0.0000     -0.0005     -0.0000      0.0006      0.0004
         2        -0.0000     -1.2520     -0.0000      1.2520      0.8347
         3        -0.0000     -0.0704     -0.0000      0.0704      0.0469

 Excitation energies and oscillator strengths:
 
 Excited State   1:      Singlet-A      2.3226 eV  533.81 nm  f=0.0004  <S**2>=0.000
      67 -> 74        -0.13817
      73 -> 74         0.68939
 This state for optimization and/or second-order correction.
 Total Energy, E(TD-HF/TD-DFT) =  -967.768999782    
 Copying the excited state density for this state as the 1-particle RhoCI density.
 
 Excited State   2:      Singlet-A      2.6083 eV  475.34 nm  f=0.8396  <S**2>=0.000
      72 -> 74         0.70032
 
 Excited State   3:      Singlet-A      3.6425 eV  340.38 nm  f=0.0468  <S**2>=0.000
      70 -> 74         0.18150
      71 -> 74         0.67872
 SavETr:  write IOETrn=   770 NScale= 10 NData=  16 NLR=1 NState=    3 LETran=      64.
 NEqPCM:  Using equilibrium solvation (IEInf=0, Eps=  24.8520, EpsInf=   1.8526)
          Differentiating once with respect to electric field.
                with respect to dipole field.
          Electric field/nuclear overlap derivatives assumed to be zero.
          There are     1 degrees of freedom in the 1st order CPHF.  IDoFFX=0 NUNeed=     1.
 LinEq1:  Iter=  0 NonCon=     1 RMS=3.19D-03 Max=1.49D-01 NDo=     1
 AX will form     1 AO Fock derivatives at one time.
 LinEq1:  Iter=  1 NonCon=     1 RMS=1.09D-03 Max=1.19D-01 NDo=     1
 LinEq1:  Iter=  2 NonCon=     1 RMS=6.76D-04 Max=8.36D-02 NDo=     1
 LinEq1:  Iter=  3 NonCon=     1 RMS=2.81D-04 Max=2.68D-02 NDo=     1
 LinEq1:  Iter=  4 NonCon=     1 RMS=1.23D-04 Max=7.83D-03 NDo=     1
 LinEq1:  Iter=  5 NonCon=     1 RMS=5.31D-05 Max=2.77D-03 NDo=     1
 LinEq1:  Iter=  6 NonCon=     1 RMS=2.18D-05 Max=1.44D-03 NDo=     1
 LinEq1:  Iter=  7 NonCon=     1 RMS=1.09D-05 Max=5.92D-04 NDo=     1
 LinEq1:  Iter=  8 NonCon=     1 RMS=4.81D-06 Max=2.51D-04 NDo=     1
 LinEq1:  Iter=  9 NonCon=     1 RMS=2.11D-06 Max=1.86D-04 NDo=     1
 LinEq1:  Iter= 10 NonCon=     1 RMS=9.53D-07 Max=5.13D-05 NDo=     1
 LinEq1:  Iter= 11 NonCon=     1 RMS=3.69D-07 Max=2.70D-05 NDo=     1
 LinEq1:  Iter= 12 NonCon=     1 RMS=1.16D-07 Max=1.06D-05 NDo=     1
 LinEq1:  Iter= 13 NonCon=     1 RMS=5.96D-08 Max=5.55D-06 NDo=     1
 LinEq1:  Iter= 14 NonCon=     1 RMS=2.79D-08 Max=2.34D-06 NDo=     1
 LinEq1:  Iter= 15 NonCon=     1 RMS=1.20D-08 Max=6.16D-07 NDo=     1
 LinEq1:  Iter= 16 NonCon=     1 RMS=5.56D-09 Max=2.85D-07 NDo=     1
 LinEq1:  Iter= 17 NonCon=     1 RMS=2.11D-09 Max=1.18D-07 NDo=     1
 LinEq1:  Iter= 18 NonCon=     1 RMS=9.39D-10 Max=7.26D-08 NDo=     1
 LinEq1:  Iter= 19 NonCon=     1 RMS=3.13D-10 Max=3.53D-08 NDo=     1
 LinEq1:  Iter= 20 NonCon=     1 RMS=1.37D-10 Max=1.23D-08 NDo=     1
 LinEq1:  Iter= 21 NonCon=     1 RMS=8.71D-11 Max=5.79D-09 NDo=     1
 LinEq1:  Iter= 22 NonCon=     1 RMS=3.06D-11 Max=1.54D-09 NDo=     1
 LinEq1:  Iter= 23 NonCon=     0 RMS=1.34D-11 Max=6.40D-10 NDo=     1
 Linear equations converged to 1.000D-10 1.000D-09 after    23 iterations.
 PCM Corrected Linear-Response - Equilibrium solvation:
 Corrected transition energy               =    1.3460          eV
 Total energy after correction             = -967.804890609     a.u.
 NEqPCM:  Using non-equilibrium solvation (IEInf=1, Eps=  24.8520, EpsInf=   1.8526)
 Inv3:  Mode=1 IEnd=    20326827.
 Iteration    1 A*A^-1 deviation from unit magnitude is 6.88D-15 for   2582.
 Iteration    1 A*A^-1 deviation from orthogonality  is 2.30D-15 for   2602    980.
 Iteration    1 A^-1*A deviation from unit magnitude is 6.44D-15 for   2582.
 Iteration    1 A^-1*A deviation from orthogonality  is 3.13D-15 for   2600    947.
 End of Minotr F.D. properties file   721 does not exist.
 End of Minotr F.D. properties file   722 does not exist.
 End of Minotr F.D. properties file   788 does not exist.

 **********************************************************************

            Population analysis using the CI Density.

 **********************************************************************

 Orbital symmetries:
       Occupied  (A) (A) (A) (A) (A) (A) (A) (A) (A) (A) (A) (A)
                 (A) (A) (A) (A) (A) (A) (A) (A) (A) (A) (A) (A)
                 (A) (A) (A) (A) (A) (A) (A) (A) (A) (A) (A) (A)
                 (A) (A) (A) (A) (A) (A) (A) (A) (A) (A) (A) (A)
                 (A) (A) (A) (A) (A) (A) (A) (A) (A) (A) (A) (A)
                 (A) (A) (A) (A) (A) (A) (A) (A) (A) (A) (A) (A)
                 (A)
       Virtual   (A) (A) (A) (A) (A) (A) (A) (A) (A) (A) (A) (A)
                 (A) (A) (A) (A) (A) (A) (A) (A) (A) (A) (A) (A)
                 (A) (A) (A) (A) (A) (A) (A) (A) (A) (A) (A) (A)
                 (A) (A) (A) (A) (A) (A) (A) (A) (A) (A) (A) (A)
                 (A) (A) (A) (A) (A) (A) (A) (A) (A) (A) (A) (A)
                 (A) (A) (A) (A) (A) (A) (A) (A) (A) (A) (A) (A)
                 (A) (A) (A) (A) (A) (A) (A) (A) (A) (A) (A) (A)
                 (A) (A) (A) (A) (A) (A) (A) (A) (A) (A) (A) (A)
                 (A) (A) (A) (A) (A) (A) (A) (A) (A) (A) (A) (A)
                 (A) (A) (A) (A) (A) (A) (A) (A) (A) (A) (A) (A)
                 (A) (A) (A) (A) (A) (A) (A) (A) (A) (A) (A) (A)
                 (A) (A) (A) (A) (A) (A) (A) (A) (A) (A) (A) (A)
                 (A) (A) (A) (A) (A) (A) (A) (A) (A) (A) (A) (A)
                 (A) (A) (A) (A) (A) (A) (A) (A) (A) (A) (A) (A)
                 (A) (A) (A) (A) (A) (A) (A) (A) (A) (A) (A) (A)
                 (A) (A) (A) (A) (A) (A) (A) (A) (A) (A) (A) (A)
                 (A) (A) (A) (A) (A) (A) (A) (A) (A) (A) (A) (A)
                 (A) (A) (A) (A) (A) (A) (A) (A) (A) (A) (A) (A)
                 (A) (A) (A) (A) (A) (A) (A) (A) (A) (A) (A) (A)
                 (A) (A) (A) (A) (A) (A) (A) (A) (A) (A) (A) (A)
                 (A) (A) (A) (A) (A) (A) (A) (A) (A) (A) (A) (A)
                 (A) (A) (A) (A) (A) (A) (A) (A) (A) (A) (A) (A)
                 (A) (A) (A) (A) (A) (A) (A) (A) (A) (A) (A) (A)
                 (A) (A) (A) (A) (A) (A) (A) (A) (A) (A) (A) (A)
                 (A) (A) (A) (A) (A) (A) (A) (A) (A) (A) (A) (A)
                 (A) (A) (A) (A) (A) (A) (A) (A) (A) (A) (A) (A)
                 (A) (A) (A) (A) (A) (A) (A) (A) (A) (A) (A) (A)
                 (A) (A) (A) (A) (A) (A) (A) (A) (A) (A) (A) (A)
                 (A) (A) (A) (A) (A) (A) (A) (A) (A) (A) (A) (A)
                 (A) (A) (A) (A) (A) (A) (A) (A) (A) (A) (A) (A)
                 (A) (A) (A) (A) (A) (A) (A) (A) (A) (A) (A) (A)
                 (A) (A) (A) (A) (A) (A) (A) (A) (A) (A) (A) (A)
                 (A) (A) (A) (A) (A) (A) (A) (A) (A) (A) (A) (A)
                 (A) (A) (A) (A) (A) (A) (A) (A) (A) (A) (A) (A)
                 (A) (A) (A) (A) (A) (A) (A) (A) (A) (A) (A) (A)
                 (A) (A) (A) (A) (A) (A) (A) (A) (A) (A) (A) (A)
                 (A) (A) (A) (A) (A) (A) (A) (A) (A) (A) (A) (A)
                 (A) (A) (A) (A) (A) (A) (A) (A) (A) (A) (A) (A)
                 (A) (A) (A) (A) (A) (A) (A) (A) (A) (A) (A) (A)
                 (A) (A) (A) (A) (A) (A) (A) (A) (A) (A) (A) (A)
                 (A) (A) (A) (A) (A) (A) (A) (A) (A) (A) (A) (A)
                 (A) (A) (A) (A) (A) (A) (A) (A) (A) (A) (A) (A)
                 (A) (A) (A) (A) (A) (A) (A) (A) (A) (A) (A) (A)
                 (A) (A) (A) (A) (A) (A) (A) (A) (A) (A) (A) (A)
                 (A) (A) (A) (A) (A) (A) (A) (A) (A) (A) (A) (A)
                 (A) (A) (A) (A) (A) (A) (A) (A) (A) (A) (A) (A)
                 (A) (A) (A) (A) (A) (A) (A) (A) (A) (A) (A) (A)
                 (A) (A) (A) (A) (A) (A) (A) (A) (A) (A) (A) (A)
                 (A) (A) (A) (A) (A) (A) (A) (A) (A) (A) (A) (A)
                 (A) (A) (A) (A) (A) (A) (A) (A) (A) (A) (A) (A)
                 (A) (A) (A) (A) (A) (A) (A) (A) (A) (A) (A) (A)
                 (A) (A) (A) (A) (A) (A) (A) (A) (A) (A) (A) (A)
                 (A) (A) (A) (A) (A) (A) (A) (A) (A) (A) (A) (A)
                 (A) (A) (A) (A) (A) (A) (A) (A) (A) (A) (A) (A)
                 (A) (A)
 The electronic state is 1-A.
 Alpha  occ. eigenvalues --  -24.76224 -24.76130 -14.47014 -14.47014 -14.43926
 Alpha  occ. eigenvalues --  -10.36205 -10.33947 -10.33345 -10.33344 -10.33067
 Alpha  occ. eigenvalues --  -10.33067 -10.30465 -10.30464 -10.29649 -10.29639
 Alpha  occ. eigenvalues --  -10.29548 -10.28955 -10.28955 -10.28102 -10.28098
 Alpha  occ. eigenvalues --   -6.92826  -1.27522  -1.24216  -1.09833  -1.07945
 Alpha  occ. eigenvalues --   -1.03757  -0.95896  -0.91174  -0.89363  -0.87717
 Alpha  occ. eigenvalues --   -0.85346  -0.83287  -0.82269  -0.76077  -0.70930
 Alpha  occ. eigenvalues --   -0.70713  -0.70216  -0.67344  -0.67201  -0.67060
 Alpha  occ. eigenvalues --   -0.63423  -0.62058  -0.60908  -0.60139  -0.59807
 Alpha  occ. eigenvalues --   -0.57809  -0.55424  -0.53892  -0.53080  -0.52865
 Alpha  occ. eigenvalues --   -0.52319  -0.51626  -0.51094  -0.51074  -0.50807
 Alpha  occ. eigenvalues --   -0.49889  -0.48777  -0.48468  -0.48026  -0.47212
 Alpha  occ. eigenvalues --   -0.47092  -0.46769  -0.45578  -0.45117  -0.43689
 Alpha  occ. eigenvalues --   -0.42054  -0.40373  -0.37370  -0.34745  -0.34552
 Alpha  occ. eigenvalues --   -0.33660  -0.29445  -0.26809
 Alpha virt. eigenvalues --   -0.05637   0.05632   0.06457   0.09306   0.10424
 Alpha virt. eigenvalues --    0.12159   0.12962   0.13043   0.14133   0.14812
 Alpha virt. eigenvalues --    0.15176   0.15526   0.16099   0.16381   0.17218
 Alpha virt. eigenvalues --    0.17493   0.18173   0.18187   0.19359   0.20062
 Alpha virt. eigenvalues --    0.20462   0.21831   0.21959   0.22950   0.23060
 Alpha virt. eigenvalues --    0.24033   0.24708   0.24746   0.25085   0.26032
 Alpha virt. eigenvalues --    0.26829   0.27393   0.27554   0.28137   0.28249
 Alpha virt. eigenvalues --    0.29553   0.30665   0.30837   0.30852   0.31233
 Alpha virt. eigenvalues --    0.31718   0.32699   0.33851   0.34095   0.35666
 Alpha virt. eigenvalues --    0.35962   0.36244   0.36482   0.36989   0.37170
 Alpha virt. eigenvalues --    0.37510   0.38706   0.38975   0.39045   0.39294
 Alpha virt. eigenvalues --    0.40031   0.40681   0.40762   0.41325   0.41909
 Alpha virt. eigenvalues --    0.42465   0.43024   0.43996   0.44158   0.44191
 Alpha virt. eigenvalues --    0.44274   0.44768   0.44962   0.45898   0.47036
 Alpha virt. eigenvalues --    0.47195   0.47877   0.48537   0.49139   0.49151
 Alpha virt. eigenvalues --    0.49560   0.50046   0.50323   0.50389   0.50791
 Alpha virt. eigenvalues --    0.51171   0.51928   0.53286   0.53689   0.53896
 Alpha virt. eigenvalues --    0.54366   0.54444   0.55356   0.55410   0.55657
 Alpha virt. eigenvalues --    0.56371   0.56926   0.58416   0.58493   0.59008
 Alpha virt. eigenvalues --    0.59109   0.59766   0.60806   0.61508   0.62018
 Alpha virt. eigenvalues --    0.63738   0.64013   0.64714   0.65772   0.67363
 Alpha virt. eigenvalues --    0.67393   0.68390   0.68653   0.68719   0.69114
 Alpha virt. eigenvalues --    0.69625   0.70644   0.71522   0.71833   0.72384
 Alpha virt. eigenvalues --    0.72592   0.73037   0.74601   0.75022   0.76696
 Alpha virt. eigenvalues --    0.77169   0.77693   0.77772   0.78394   0.79165
 Alpha virt. eigenvalues --    0.79636   0.80227   0.80574   0.80698   0.82534
 Alpha virt. eigenvalues --    0.83269   0.83320   0.83588   0.83719   0.84343
 Alpha virt. eigenvalues --    0.84482   0.84887   0.86166   0.87240   0.88525
 Alpha virt. eigenvalues --    0.89036   0.89495   0.89725   0.90352   0.90665
 Alpha virt. eigenvalues --    0.92185   0.93005   0.93383   0.93585   0.95271
 Alpha virt. eigenvalues --    0.95592   0.95863   0.99669   1.00050   1.00806
 Alpha virt. eigenvalues --    1.03935   1.04392   1.04745   1.04997   1.05559
 Alpha virt. eigenvalues --    1.05771   1.05952   1.06108   1.07484   1.07586
 Alpha virt. eigenvalues --    1.07938   1.08230   1.08270   1.11303   1.12038
 Alpha virt. eigenvalues --    1.12154   1.12738   1.15568   1.15765   1.16556
 Alpha virt. eigenvalues --    1.18038   1.18868   1.18906   1.19622   1.20341
 Alpha virt. eigenvalues --    1.21920   1.22098   1.22829   1.23915   1.24170
 Alpha virt. eigenvalues --    1.26045   1.26492   1.27748   1.28633   1.29552
 Alpha virt. eigenvalues --    1.30167   1.31843   1.32100   1.33730   1.34644
 Alpha virt. eigenvalues --    1.34941   1.34952   1.36873   1.37520   1.38146
 Alpha virt. eigenvalues --    1.38537   1.41519   1.43028   1.43367   1.43981
 Alpha virt. eigenvalues --    1.44515   1.44798   1.45971   1.46660   1.47083
 Alpha virt. eigenvalues --    1.48894   1.49984   1.50680   1.51397   1.53457
 Alpha virt. eigenvalues --    1.54706   1.55344   1.55456   1.56215   1.57077
 Alpha virt. eigenvalues --    1.57515   1.58225   1.58459   1.60206   1.60338
 Alpha virt. eigenvalues --    1.60903   1.62277   1.62571   1.63426   1.64649
 Alpha virt. eigenvalues --    1.64746   1.65357   1.66556   1.67768   1.67992
 Alpha virt. eigenvalues --    1.69160   1.70342   1.70440   1.70732   1.71520
 Alpha virt. eigenvalues --    1.72099   1.72744   1.73016   1.73689   1.75188
 Alpha virt. eigenvalues --    1.75466   1.76082   1.76248   1.79348   1.79948
 Alpha virt. eigenvalues --    1.80254   1.82496   1.82527   1.82870   1.83492
 Alpha virt. eigenvalues --    1.86373   1.87914   1.88194   1.88426   1.88506
 Alpha virt. eigenvalues --    1.88614   1.88704   1.90957   1.91057   1.91671
 Alpha virt. eigenvalues --    1.92008   1.93820   1.94529   1.95248   1.98211
 Alpha virt. eigenvalues --    1.98372   1.98725   1.99525   2.00845   2.01557
 Alpha virt. eigenvalues --    2.03476   2.04264   2.05587   2.07874   2.08918
 Alpha virt. eigenvalues --    2.09180   2.09704   2.11553   2.11806   2.12843
 Alpha virt. eigenvalues --    2.14968   2.15541   2.17290   2.17903   2.19112
 Alpha virt. eigenvalues --    2.20754   2.21094   2.21458   2.22316   2.22985
 Alpha virt. eigenvalues --    2.25383   2.26619   2.26899   2.27635   2.28480
 Alpha virt. eigenvalues --    2.29470   2.29617   2.30528   2.31970   2.33225
 Alpha virt. eigenvalues --    2.35237   2.35756   2.36069   2.37084   2.37593
 Alpha virt. eigenvalues --    2.38632   2.39328   2.39627   2.42853   2.44507
 Alpha virt. eigenvalues --    2.44731   2.45177   2.47590   2.49231   2.49559
 Alpha virt. eigenvalues --    2.49733   2.50064   2.53166   2.54958   2.57054
 Alpha virt. eigenvalues --    2.57422   2.58779   2.60249   2.60743   2.61482
 Alpha virt. eigenvalues --    2.62086   2.62561   2.63755   2.65106   2.65244
 Alpha virt. eigenvalues --    2.67368   2.68051   2.69176   2.69935   2.70315
 Alpha virt. eigenvalues --    2.70497   2.71393   2.71891   2.72739   2.74083
 Alpha virt. eigenvalues --    2.74162   2.74303   2.75399   2.75897   2.76312
 Alpha virt. eigenvalues --    2.76431   2.77139   2.77630   2.79613   2.79779
 Alpha virt. eigenvalues --    2.80535   2.80824   2.82891   2.84383   2.84638
 Alpha virt. eigenvalues --    2.84756   2.85141   2.86532   2.87575   2.87680
 Alpha virt. eigenvalues --    2.88022   2.88468   2.89304   2.89926   2.91433
 Alpha virt. eigenvalues --    2.92443   2.93684   2.93915   2.93942   2.94745
 Alpha virt. eigenvalues --    2.95439   2.97680   2.98034   2.98715   3.00072
 Alpha virt. eigenvalues --    3.00157   3.00307   3.01850   3.02025   3.04311
 Alpha virt. eigenvalues --    3.05227   3.05240   3.06407   3.07056   3.07190
 Alpha virt. eigenvalues --    3.08089   3.09140   3.09687   3.11522   3.12288
 Alpha virt. eigenvalues --    3.12788   3.13272   3.15700   3.15852   3.15910
 Alpha virt. eigenvalues --    3.16775   3.16915   3.18700   3.19044   3.19062
 Alpha virt. eigenvalues --    3.19715   3.19909   3.21271   3.21753   3.22241
 Alpha virt. eigenvalues --    3.22764   3.23020   3.25312   3.25548   3.26279
 Alpha virt. eigenvalues --    3.27048   3.27334   3.27848   3.28344   3.29400
 Alpha virt. eigenvalues --    3.30417   3.30970   3.31049   3.31638   3.34490
 Alpha virt. eigenvalues --    3.36032   3.36418   3.36849   3.37018   3.37130
 Alpha virt. eigenvalues --    3.38725   3.40708   3.40751   3.40912   3.41142
 Alpha virt. eigenvalues --    3.41939   3.43257   3.44129   3.44752   3.45394
 Alpha virt. eigenvalues --    3.46386   3.46610   3.47347   3.47487   3.48166
 Alpha virt. eigenvalues --    3.49895   3.50959   3.51200   3.52844   3.54424
 Alpha virt. eigenvalues --    3.54488   3.54646   3.56910   3.57006   3.57662
 Alpha virt. eigenvalues --    3.58202   3.59175   3.61447   3.61643   3.62382
 Alpha virt. eigenvalues --    3.62437   3.63327   3.64015   3.64167   3.64588
 Alpha virt. eigenvalues --    3.69178   3.69529   3.70366   3.70623   3.70902
 Alpha virt. eigenvalues --    3.71528   3.72695   3.73761   3.74760   3.75751
 Alpha virt. eigenvalues --    3.77563   3.77982   3.79413   3.79606   3.80105
 Alpha virt. eigenvalues --    3.82205   3.84021   3.87446   3.87612   3.88307
 Alpha virt. eigenvalues --    3.89748   3.91135   3.93116   3.93589   3.95503
 Alpha virt. eigenvalues --    3.96373   3.98796   3.99087   4.04041   4.04075
 Alpha virt. eigenvalues --    4.06545   4.07335   4.08685   4.10309   4.10569
 Alpha virt. eigenvalues --    4.10841   4.12992   4.14421   4.16069   4.16715
 Alpha virt. eigenvalues --    4.16936   4.16991   4.17470   4.20000   4.20356
 Alpha virt. eigenvalues --    4.22465   4.24599   4.24849   4.27113   4.27572
 Alpha virt. eigenvalues --    4.29287   4.31224   4.32003   4.33500   4.34014
 Alpha virt. eigenvalues --    4.35481   4.35966   4.36802   4.36841   4.39155
 Alpha virt. eigenvalues --    4.40495   4.40857   4.41749   4.42740   4.43207
 Alpha virt. eigenvalues --    4.44627   4.46787   4.48042   4.50291   4.53432
 Alpha virt. eigenvalues --    4.59106   4.60266   4.60948   4.63248   4.64777
 Alpha virt. eigenvalues --    4.65720   4.70380   4.71094   4.71297   4.79023
 Alpha virt. eigenvalues --    4.79196   4.80670   4.82482   4.83443   4.84474
 Alpha virt. eigenvalues --    4.88575   4.89262   4.89891   4.90663   4.91412
 Alpha virt. eigenvalues --    4.91904   4.94665   4.95930   4.96127   4.98341
 Alpha virt. eigenvalues --    4.98845   5.01172   5.03782   5.07428   5.08464
 Alpha virt. eigenvalues --    5.08748   5.10146   5.11548   5.14208   5.16977
 Alpha virt. eigenvalues --    5.17405   5.18551   5.23594   5.24933   5.26567
 Alpha virt. eigenvalues --    5.29729   5.30393   5.32961   5.35678   5.36284
 Alpha virt. eigenvalues --    5.36525   5.39892   5.42261   5.47598   5.48256
 Alpha virt. eigenvalues --    5.50469   5.51170   5.51714   5.56337   5.58134
 Alpha virt. eigenvalues --    5.62726   5.63783   5.70019   5.73420   5.79375
 Alpha virt. eigenvalues --    5.90208   5.92102   5.93646   5.98430   6.00118
 Alpha virt. eigenvalues --    6.04723   6.07167   6.11756   6.14122   6.29662
 Alpha virt. eigenvalues --    6.98831   6.99001   7.01410   7.01632   7.04323
 Alpha virt. eigenvalues --    7.04365   7.10257   7.18066   7.23386   7.28109
 Alpha virt. eigenvalues --    7.30314   7.32227   7.41294   7.41634   8.49643
 Alpha virt. eigenvalues --    8.52758   8.63375   8.65070   8.88169   8.93471
 Alpha virt. eigenvalues --    8.96533   8.99505   8.99580   9.09333  15.89702
 Alpha virt. eigenvalues --   22.46075  22.46937  22.52642  22.69059  22.71170
 Alpha virt. eigenvalues --   22.78340  22.86002  22.86907  22.87509  22.92290
 Alpha virt. eigenvalues --   23.00887  23.15747  23.27465  23.39743  23.70009
 Alpha virt. eigenvalues --   32.20863  33.01361  33.06489  57.13740  57.36838
          Condensed to atoms (all electrons):
               1          2          3          4          5          6
     1  C    5.485985  -0.010968   0.187338   0.428845  -0.047950  -0.205186
     2  C   -0.010968   5.486282   0.189633   0.021937   0.002592  -0.004966
     3  C    0.187338   0.189633   5.826639  -0.117126   0.004273   0.006602
     4  C    0.428845   0.021937  -0.117126   5.293644   0.403757  -0.037870
     5  C   -0.047950   0.002592   0.004273   0.403757   5.110962   0.517231
     6  C   -0.205186  -0.004966   0.006602  -0.037870   0.517231   5.131725
     7  H    0.009377  -0.000003  -0.000169  -0.045453   0.448379  -0.042389
     8  C   -0.004942  -0.205262   0.006471  -0.000109   0.000077  -0.000553
     9  C    0.021901   0.429012  -0.117350   0.000362   0.000041  -0.000111
    10  C    0.002579  -0.047853   0.004182   0.000041  -0.000002   0.000077
    11  H   -0.000003   0.009379  -0.000166  -0.000001   0.000000  -0.000000
    12  N    0.396397  -0.014684  -0.028245  -0.101572  -0.098533   0.413630
    13  N   -0.014777   0.396258  -0.027937   0.000176  -0.000499   0.001265
    14  B   -0.092670  -0.092676   0.012643   0.004776  -0.008804  -0.023993
    15  F   -0.009640  -0.009646   0.005397   0.000215  -0.000317  -0.003066
    16  F   -0.010259  -0.010247   0.004376   0.000154   0.000177  -0.001476
    17  C   -0.194042  -0.195678   0.269110  -0.027286  -0.004428  -0.000310
    18  C    0.012222   0.012273  -0.126306   0.003076   0.000078  -0.000085
    19  C    0.010615   0.010722  -0.124290   0.002346   0.000166  -0.000125
    20  C   -0.001329  -0.001545  -0.012053  -0.002126  -0.000086   0.000013
    21  H    0.004133   0.004109  -0.005394   0.000879  -0.000017  -0.000002
    22  C   -0.001144  -0.001114  -0.012094  -0.001783  -0.000099   0.000018
    23  H    0.004181   0.004290  -0.005445   0.000708  -0.000012  -0.000003
    24  C    0.001132   0.001183   0.000817  -0.000139  -0.000008   0.000002
    25  H   -0.000046  -0.000047  -0.000270  -0.000000  -0.000001   0.000000
    26  H   -0.000052  -0.000055  -0.000294   0.000002  -0.000001   0.000000
    27  H   -0.000703  -0.046873  -0.011919  -0.000014   0.000001  -0.000002
    28  H    0.000245   0.003404  -0.001302  -0.000003   0.000002  -0.000020
    29  H   -0.046859  -0.000701  -0.011935   0.445925  -0.036306   0.007295
    30  H    0.003415   0.000245  -0.001300   0.008592  -0.033865   0.427072
    31  N   -0.000014  -0.000014   0.000036   0.000016   0.000000  -0.000000
    32  H   -0.000000  -0.000000   0.000000   0.000000  -0.000000  -0.000000
    33  H   -0.000000  -0.000000  -0.000000   0.000000  -0.000000   0.000000
               7          8          9         10         11         12
     1  C    0.009377  -0.004942   0.021901   0.002579  -0.000003   0.396397
     2  C   -0.000003  -0.205262   0.429012  -0.047853   0.009379  -0.014684
     3  C   -0.000169   0.006471  -0.117350   0.004182  -0.000166  -0.028245
     4  C   -0.045453  -0.000109   0.000362   0.000041  -0.000001  -0.101572
     5  C    0.448379   0.000077   0.000041  -0.000002   0.000000  -0.098533
     6  C   -0.042389  -0.000553  -0.000111   0.000077  -0.000000   0.413630
     7  H    0.469881  -0.000000  -0.000001   0.000000  -0.000000   0.003834
     8  C   -0.000000   5.131829  -0.037614   0.517175  -0.042395   0.001269
     9  C   -0.000001  -0.037614   5.294413   0.403569  -0.045480   0.000184
    10  C    0.000000   0.517175   0.403569   5.110796   0.448420  -0.000502
    11  H   -0.000000  -0.042395  -0.045480   0.448420   0.469879   0.000009
    12  N    0.003834   0.001269   0.000184  -0.000502   0.000009   6.286384
    13  N    0.000009   0.413598  -0.101597  -0.098417   0.003834  -0.035420
    14  B   -0.000030  -0.023978   0.004774  -0.008799  -0.000029   0.345346
    15  F    0.000005  -0.003068   0.000211  -0.000315   0.000005  -0.043937
    16  F    0.000004  -0.001469   0.000160   0.000175   0.000004  -0.041146
    17  C    0.000025  -0.000335  -0.027604  -0.004388   0.000025   0.011469
    18  C   -0.000004  -0.000079   0.003157   0.000058  -0.000004  -0.000227
    19  C   -0.000004  -0.000131   0.002378   0.000181  -0.000004  -0.000185
    20  C    0.000001   0.000013  -0.002107  -0.000084   0.000001   0.000014
    21  H   -0.000000  -0.000001   0.000849  -0.000019  -0.000000  -0.000021
    22  C    0.000001   0.000018  -0.001880  -0.000102   0.000001   0.000008
    23  H   -0.000000  -0.000002   0.000733  -0.000012  -0.000000  -0.000026
    24  C   -0.000000   0.000002  -0.000151  -0.000009  -0.000000  -0.000000
    25  H    0.000000   0.000000   0.000000  -0.000001   0.000000   0.000000
    26  H    0.000000   0.000000   0.000001  -0.000001   0.000000   0.000000
    27  H   -0.000000   0.007294   0.445940  -0.036248  -0.002371   0.000021
    28  H   -0.000000   0.427098   0.008605  -0.033885  -0.001608  -0.000002
    29  H   -0.002370  -0.000002  -0.000014   0.000001  -0.000000   0.004182
    30  H   -0.001607  -0.000020  -0.000003   0.000002  -0.000000  -0.028295
    31  N    0.000000  -0.000000   0.000017   0.000000   0.000000  -0.000000
    32  H    0.000000  -0.000000   0.000000  -0.000000   0.000000  -0.000000
    33  H    0.000000   0.000000   0.000000  -0.000000   0.000000  -0.000000
              13         14         15         16         17         18
     1  C   -0.014777  -0.092670  -0.009640  -0.010259  -0.194042   0.012222
     2  C    0.396258  -0.092676  -0.009646  -0.010247  -0.195678   0.012273
     3  C   -0.027937   0.012643   0.005397   0.004376   0.269110  -0.126306
     4  C    0.000176   0.004776   0.000215   0.000154  -0.027286   0.003076
     5  C   -0.000499  -0.008804  -0.000317   0.000177  -0.004428   0.000078
     6  C    0.001265  -0.023993  -0.003066  -0.001476  -0.000310  -0.000085
     7  H    0.000009  -0.000030   0.000005   0.000004   0.000025  -0.000004
     8  C    0.413598  -0.023978  -0.003068  -0.001469  -0.000335  -0.000079
     9  C   -0.101597   0.004774   0.000211   0.000160  -0.027604   0.003157
    10  C   -0.098417  -0.008799  -0.000315   0.000175  -0.004388   0.000058
    11  H    0.003834  -0.000029   0.000005   0.000004   0.000025  -0.000004
    12  N   -0.035420   0.345346  -0.043937  -0.041146   0.011469  -0.000227
    13  N    6.286502   0.345331  -0.043924  -0.041172   0.011439  -0.000230
    14  B    0.345331   3.407441   0.372361   0.367400   0.014450   0.000147
    15  F   -0.043924   0.372361   9.161467  -0.035214   0.000172  -0.000003
    16  F   -0.041172   0.367400  -0.035214   9.157526   0.000070   0.000004
    17  C    0.011439   0.014450   0.000172   0.000070   5.627473   0.276784
    18  C   -0.000230   0.000147  -0.000003   0.000004   0.276784   5.202086
    19  C   -0.000187  -0.000019   0.000004  -0.000003   0.288743  -0.080613
    20  C    0.000013  -0.000002   0.000000   0.000000   0.065564   0.392216
    21  H   -0.000020  -0.000023  -0.000000  -0.000002  -0.060297   0.452020
    22  C    0.000008  -0.000000   0.000000   0.000000   0.060416  -0.015593
    23  H   -0.000027  -0.000023  -0.000003  -0.000000  -0.060204   0.011262
    24  C   -0.000000   0.000017   0.000000   0.000000  -0.086984   0.051088
    25  H    0.000000   0.000000   0.000000  -0.000000   0.008700  -0.031386
    26  H    0.000000   0.000001  -0.000000   0.000000   0.008766  -0.003233
    27  H    0.004175   0.000618   0.000006   0.000006   0.003774   0.000712
    28  H   -0.028296  -0.001879  -0.000384   0.000682  -0.000027   0.000001
    29  H    0.000021   0.000619   0.000006   0.000006   0.003881   0.000681
    30  H   -0.000002  -0.001883  -0.000387   0.000686  -0.000026   0.000001
    31  N   -0.000000   0.000000   0.000000   0.000000   0.003412  -0.006029
    32  H   -0.000000   0.000000   0.000000  -0.000000   0.000003  -0.000588
    33  H   -0.000000   0.000000   0.000000   0.000000   0.000001   0.001172
              19         20         21         22         23         24
     1  C    0.010615  -0.001329   0.004133  -0.001144   0.004181   0.001132
     2  C    0.010722  -0.001545   0.004109  -0.001114   0.004290   0.001183
     3  C   -0.124290  -0.012053  -0.005394  -0.012094  -0.005445   0.000817
     4  C    0.002346  -0.002126   0.000879  -0.001783   0.000708  -0.000139
     5  C    0.000166  -0.000086  -0.000017  -0.000099  -0.000012  -0.000008
     6  C   -0.000125   0.000013  -0.000002   0.000018  -0.000003   0.000002
     7  H   -0.000004   0.000001  -0.000000   0.000001  -0.000000  -0.000000
     8  C   -0.000131   0.000013  -0.000001   0.000018  -0.000002   0.000002
     9  C    0.002378  -0.002107   0.000849  -0.001880   0.000733  -0.000151
    10  C    0.000181  -0.000084  -0.000019  -0.000102  -0.000012  -0.000009
    11  H   -0.000004   0.000001  -0.000000   0.000001  -0.000000  -0.000000
    12  N   -0.000185   0.000014  -0.000021   0.000008  -0.000026  -0.000000
    13  N   -0.000187   0.000013  -0.000020   0.000008  -0.000027  -0.000000
    14  B   -0.000019  -0.000002  -0.000023  -0.000000  -0.000023   0.000017
    15  F    0.000004   0.000000  -0.000000   0.000000  -0.000003   0.000000
    16  F   -0.000003   0.000000  -0.000002   0.000000  -0.000000   0.000000
    17  C    0.288743   0.065564  -0.060297   0.060416  -0.060204  -0.086984
    18  C   -0.080613   0.392216   0.452020  -0.015593   0.011262   0.051088
    19  C    5.185505  -0.014393   0.011074   0.400624   0.451600   0.046981
    20  C   -0.014393   5.127420  -0.053194   0.000738  -0.003725   0.309452
    21  H    0.011074  -0.053194   0.451087  -0.003669   0.000011   0.010792
    22  C    0.400624   0.000738  -0.003669   5.122053  -0.052951   0.312901
    23  H    0.451600  -0.003725   0.000011  -0.052951   0.451249   0.010760
    24  C    0.046981   0.309452   0.010792   0.312901   0.010760   4.706752
    25  H   -0.003139   0.433053  -0.006187   0.007461   0.000003  -0.049348
    26  H   -0.031309   0.007549   0.000002   0.433023  -0.006192  -0.049449
    27  H    0.000636   0.000073   0.000149   0.000112   0.000141   0.000235
    28  H    0.000001   0.000000  -0.000000   0.000000  -0.000000   0.000000
    29  H    0.000635   0.000081   0.000151   0.000106   0.000135   0.000224
    30  H    0.000001   0.000000  -0.000000   0.000000  -0.000000   0.000000
    31  N   -0.006184  -0.037435  -0.000149  -0.037602  -0.000149   0.464438
    32  H    0.001167   0.006581   0.000007  -0.008315  -0.000023  -0.020493
    33  H   -0.000590  -0.008323  -0.000023   0.006577   0.000007  -0.020474
              25         26         27         28         29         30
     1  C   -0.000046  -0.000052  -0.000703   0.000245  -0.046859   0.003415
     2  C   -0.000047  -0.000055  -0.046873   0.003404  -0.000701   0.000245
     3  C   -0.000270  -0.000294  -0.011919  -0.001302  -0.011935  -0.001300
     4  C   -0.000000   0.000002  -0.000014  -0.000003   0.445925   0.008592
     5  C   -0.000001  -0.000001   0.000001   0.000002  -0.036306  -0.033865
     6  C    0.000000   0.000000  -0.000002  -0.000020   0.007295   0.427072
     7  H    0.000000   0.000000  -0.000000  -0.000000  -0.002370  -0.001607
     8  C    0.000000   0.000000   0.007294   0.427098  -0.000002  -0.000020
     9  C    0.000000   0.000001   0.445940   0.008605  -0.000014  -0.000003
    10  C   -0.000001  -0.000001  -0.036248  -0.033885   0.000001   0.000002
    11  H    0.000000   0.000000  -0.002371  -0.001608  -0.000000  -0.000000
    12  N    0.000000   0.000000   0.000021  -0.000002   0.004182  -0.028295
    13  N    0.000000   0.000000   0.004175  -0.028296   0.000021  -0.000002
    14  B    0.000000   0.000001   0.000618  -0.001879   0.000619  -0.001883
    15  F    0.000000  -0.000000   0.000006  -0.000384   0.000006  -0.000387
    16  F   -0.000000   0.000000   0.000006   0.000682   0.000006   0.000686
    17  C    0.008700   0.008766   0.003774  -0.000027   0.003881  -0.000026
    18  C   -0.031386  -0.003233   0.000712   0.000001   0.000681   0.000001
    19  C   -0.003139  -0.031309   0.000636   0.000001   0.000635   0.000001
    20  C    0.433053   0.007549   0.000073   0.000000   0.000081   0.000000
    21  H   -0.006187   0.000002   0.000149  -0.000000   0.000151  -0.000000
    22  C    0.007461   0.433023   0.000112   0.000000   0.000106   0.000000
    23  H    0.000003  -0.006192   0.000141  -0.000000   0.000135  -0.000000
    24  C   -0.049348  -0.049449   0.000235   0.000000   0.000224   0.000000
    25  H    0.440779  -0.000054  -0.000004  -0.000000  -0.000004  -0.000000
    26  H   -0.000054   0.441012  -0.000003  -0.000000  -0.000003  -0.000000
    27  H   -0.000004  -0.000003   0.459269  -0.000030  -0.000000  -0.000000
    28  H   -0.000000  -0.000000  -0.000030   0.445460  -0.000000  -0.000001
    29  H   -0.000004  -0.000003  -0.000000  -0.000000   0.459334  -0.000030
    30  H   -0.000000  -0.000000  -0.000000  -0.000001  -0.000030   0.445441
    31  N    0.001519   0.001502  -0.000016  -0.000000  -0.000016  -0.000000
    32  H   -0.000066   0.002103  -0.000000  -0.000000  -0.000000  -0.000000
    33  H    0.002083  -0.000067  -0.000000  -0.000000  -0.000000  -0.000000
              31         32         33
     1  C   -0.000014  -0.000000  -0.000000
     2  C   -0.000014  -0.000000  -0.000000
     3  C    0.000036   0.000000  -0.000000
     4  C    0.000016   0.000000   0.000000
     5  C    0.000000  -0.000000  -0.000000
     6  C   -0.000000  -0.000000   0.000000
     7  H    0.000000   0.000000   0.000000
     8  C   -0.000000  -0.000000   0.000000
     9  C    0.000017   0.000000   0.000000
    10  C    0.000000  -0.000000  -0.000000
    11  H    0.000000   0.000000   0.000000
    12  N   -0.000000  -0.000000  -0.000000
    13  N   -0.000000  -0.000000  -0.000000
    14  B    0.000000   0.000000   0.000000
    15  F    0.000000   0.000000   0.000000
    16  F    0.000000  -0.000000   0.000000
    17  C    0.003412   0.000003   0.000001
    18  C   -0.006029  -0.000588   0.001172
    19  C   -0.006184   0.001167  -0.000590
    20  C   -0.037435   0.006581  -0.008323
    21  H   -0.000149   0.000007  -0.000023
    22  C   -0.037602  -0.008315   0.006577
    23  H   -0.000149  -0.000023   0.000007
    24  C    0.464438  -0.020493  -0.020474
    25  H    0.001519  -0.000066   0.002083
    26  H    0.001502   0.002103  -0.000067
    27  H   -0.000016  -0.000000  -0.000000
    28  H   -0.000000  -0.000000  -0.000000
    29  H   -0.000016  -0.000000  -0.000000
    30  H   -0.000000  -0.000000  -0.000000
    31  N    6.228880   0.363015   0.363019
    32  H    0.363015   0.331804  -0.017832
    33  H    0.363019  -0.017832   0.331849
 Mulliken charges:
               1
     1  C    0.072221
     2  C    0.071012
     3  C    0.086077
     4  C   -0.281970
     5  C   -0.256811
     6  C   -0.184775
     7  H    0.160513
     8  C   -0.184882
     9  C   -0.282396
    10  C   -0.256621
    11  H    0.160504
    12  N   -0.069955
    13  N   -0.070124
    14  B    0.378886
    15  F   -0.389945
    16  F   -0.390443
    17  C    0.007331
    18  C   -0.154658
    19  C   -0.152204
    20  C   -0.206378
    21  H    0.193756
    22  C   -0.207720
    23  H    0.193717
    24  C    0.310278
    25  H    0.196955
    26  H    0.196752
    27  H    0.175022
    28  H    0.181939
    29  H    0.174959
    30  H    0.181964
    31  N   -0.338246
    32  H    0.342638
    33  H    0.342600
 Sum of Mulliken charges =  -0.00000
 Mulliken charges with hydrogens summed into heavy atoms:
               1
     1  C    0.072221
     2  C    0.071012
     3  C    0.086077
     4  C   -0.107011
     5  C   -0.096297
     6  C   -0.002811
     8  C   -0.002943
     9  C   -0.107374
    10  C   -0.096117
    12  N   -0.069955
    13  N   -0.070124
    14  B    0.378886
    15  F   -0.389945
    16  F   -0.390443
    17  C    0.007331
    18  C    0.039098
    19  C    0.041514
    20  C   -0.009423
    22  C   -0.010967
    24  C    0.310278
    31  N    0.346992
 Electronic spatial extent (au):  <R**2>=           6121.2050
 Charge=              0.0000 electrons
 Dipole moment (field-independent basis, Debye):
    X=            -30.1164    Y=             -0.0185    Z=             -0.1230  Tot=             30.1167
 Quadrupole moment (field-independent basis, Debye-Ang):
   XX=            -43.9584   YY=           -125.7046   ZZ=           -117.0605
   XY=             -0.0605   XZ=             -1.1430   YZ=              0.0826
 Traceless Quadrupole moment (field-independent basis, Debye-Ang):
   XX=             51.6161   YY=            -30.1301   ZZ=            -21.4860
   XY=             -0.0605   XZ=             -1.1430   YZ=              0.0826
 Octapole moment (field-independent basis, Debye-Ang**2):
  XXX=           -729.4620  YYY=              0.1794  ZZZ=              1.4158  XYY=             15.0072
  XXY=              0.0178  XXZ=              1.1822  XZZ=            -70.3965  YZZ=             -0.0338
  YYZ=             -0.3083  XYZ=             -0.3411
 Hexadecapole moment (field-independent basis, Debye-Ang**3):
 XXXX=          -1997.8398 YYYY=          -2082.4124 ZZZZ=           -425.2076 XXXY=             -2.5423
 XXXZ=            -18.1077 YYYX=              0.4760 YYYZ=             -0.1455 ZZZX=             -4.3211
 ZZZY=              0.6709 XXYY=          -1227.2238 XXZZ=           -829.5555 YYZZ=           -510.9505
 XXYZ=              1.4006 YYXZ=              0.4832 ZZXY=              0.1440
 N-N= 1.586393974666D+03 E-N=-5.437496017581D+03  KE= 9.629839109712D+02
 Unable to Open any file for archive entry.
 1\1\GINC-X1003C0S2B1N1\SP\RwB97XD TD-FC\def2TZVP\C15H12B1F2N3\1008721\
 08-Oct-2025\0\\# wb97xd/def2tzvp geom=check guess=read TD=(Read, NStat
 es=3, Root=1) SCRF=(SMD, solvent=ethanol, CorrectedLR, NonEq=Save)\\BD
 P-NH2_ethanol_wb97xd_wb97xd_wb97xd\\0,1\C,0,0.619712,-1.234566,-0.0224
 4\C,0,0.613006,1.231537,-0.024903\C,0,-0.099937,-0.003447,-0.016017\C,
 0,0.163863,-2.559573,-0.041921\C,0,1.317103,-3.383808,-0.049379\C,0,2.
 414782,-2.540312,-0.033873\H,0,1.34719,-4.472276,-0.066536\C,0,2.40091
 1,2.547047,-0.037965\C,0,0.149925,2.554037,-0.046256\C,0,1.298662,3.38
 4521,-0.054812\H,0,1.322824,4.473113,-0.073376\N,0,1.998018,-1.240122,
 -0.017285\N,0,1.991268,1.244621,-0.019664\B,0,2.901976,0.004777,0.0399
 8\F,0,3.657691,0.00792,1.231773\F,0,3.807759,0.006231,-1.039343\C,0,-1
 .552619,-0.006641,-0.005211\C,0,-2.29548,-0.011832,-1.231053\C,0,-2.27
 3178,0.000711,1.234016\C,0,-3.656205,-0.010029,-1.230298\H,0,-1.745077
 ,-0.017312,-2.173251\C,0,-3.633493,0.003578,1.257804\H,0,-1.705671,0.0
 0464,2.166017\C,0,-4.367247,-0.001637,0.020467\H,0,-4.227318,-0.014227
 ,-2.160111\H,0,-4.18851,0.009878,2.197343\H,0,-0.895241,2.860321,-0.05
 8435\H,0,3.46112,2.796623,-0.037343\H,0,-0.879604,-2.871596,-0.053823\
 H,0,3.476336,-2.784104,-0.033237\N,0,-5.682188,0.001378,0.033337\H,0,-
 6.197913,0.007423,0.909946\H,0,-6.215583,-0.002375,-0.832631\\Version=
 ES64L-G16RevC.01\State=1-A\HF=-967.854355\RMSD=1.253e-09\Dipole=-11.84
 87013,-0.0072911,-0.0483816\Quadrupole=38.3752894,-22.4009866,-15.9743
 028,-0.0449822,-0.8498001,0.0613797\PG=C01 [X(C15H12B1F2N3)]\\@
 The archive entry for this job was punched.


 FROM WHENCE IT HAPPENS, THAT THEY WHICH TRUST TO BOOKS, DO AS THEY THAT CAST UP MANY LITTLE SUMMS INTO GREATER,
 WITHOUT CONSIDERING WETHER THOSE LITTLE SUMMES WERE RIGHTLY CAST UP OR NOT...
 AND AT LAST FINDING THE ERROUR VISIBLE, AND NOT MISTRUSTING THEIR FIRST GROUNDS,
 KNOW NOT WHICH WAY TO CLEERE THEMSELVES...
 BUT SPEND TIME IN FLUTTERING OVER THEIR BOOKES....
 AS BIRDS THAT ENTERING BY THE CHIMNEY, AND FINDING THEMSELVES INCLOSED IN A CHAMBER,
 FLUTTER AT THE FALSE LIGHT OF A GLASSE WINDOW,
 FOR WANT OF WIT TO CONSIDER WHICH WAY THEY CAME IN....
           LEVIATHAN
 Job cpu time:       1 days 14 hours  7 minutes 42.5 seconds.
 Elapsed time:       0 days  1 hours 12 minutes  6.1 seconds.
 File lengths (MBytes):  RWF=   1602 Int=      0 D2E=      0 Chk=     91 Scr=      1
 Normal termination of Gaussian 16 at Wed Oct  8 15:32:28 2025.
