 Entering Gaussian System, Link 0=g16
 Initial command:
 /home/users/sutd/1008721/g16/l1.exe "/home/users/sutd/1008721/scratch/g16/scratch/Gau-2293744.inp" -scrdir="/home/users/sutd/1008721/scratch/g16/scratch/"
 Entering Link 1 = /home/users/sutd/1008721/g16/l1.exe PID=   2293745.
  
 Copyright (c) 1988-2019, Gaussian, Inc.  All Rights Reserved.
  
 This is part of the Gaussian(R) 16 program.  It is based on
 the Gaussian(R) 09 system (copyright 2009, Gaussian, Inc.),
 the Gaussian(R) 03 system (copyright 2003, Gaussian, Inc.),
 the Gaussian(R) 98 system (copyright 1998, Gaussian, Inc.),
 the Gaussian(R) 94 system (copyright 1995, Gaussian, Inc.),
 the Gaussian 92(TM) system (copyright 1992, Gaussian, Inc.),
 the Gaussian 90(TM) system (copyright 1990, Gaussian, Inc.),
 the Gaussian 88(TM) system (copyright 1988, Gaussian, Inc.),
 the Gaussian 86(TM) system (copyright 1986, Carnegie Mellon
 University), and the Gaussian 82(TM) system (copyright 1983,
 Carnegie Mellon University). Gaussian is a federally registered
 trademark of Gaussian, Inc.
  
 This software contains proprietary and confidential information,
 including trade secrets, belonging to Gaussian, Inc.
  
 This software is provided under written license and may be
 used, copied, transmitted, or stored only in accord with that
 written license.
  
 The following legend is applicable only to US Government
 contracts under FAR:
  
                    RESTRICTED RIGHTS LEGEND
  
 Use, reproduction and disclosure by the US Government is
 subject to restrictions as set forth in subparagraphs (a)
 and (c) of the Commercial Computer Software - Restricted
 Rights clause in FAR 52.227-19.
  
 Gaussian, Inc.
 340 Quinnipiac St., Bldg. 40, Wallingford CT 06492
  
  
 ---------------------------------------------------------------
 Warning -- This program may not be used in any manner that
 competes with the business of Gaussian, Inc. or will provide
 assistance to any competitor of Gaussian, Inc.  The licensee
 of this program is prohibited from giving any competitor of
 Gaussian, Inc. access to this program.  By using this program,
 the user acknowledges that Gaussian, Inc. is engaged in the
 business of creating and licensing software in the field of
 computational chemistry and represents and warrants to the
 licensee that it is not a competitor of Gaussian, Inc. and that
 it will not use this program in any manner prohibited above.
 ---------------------------------------------------------------
  

 Cite this work as:
 Gaussian 16, Revision C.01,
 M. J. Frisch, G. W. Trucks, H. B. Schlegel, G. E. Scuseria, 
 M. A. Robb, J. R. Cheeseman, G. Scalmani, V. Barone, 
 G. A. Petersson, H. Nakatsuji, X. Li, M. Caricato, A. V. Marenich, 
 J. Bloino, B. G. Janesko, R. Gomperts, B. Mennucci, H. P. Hratchian, 
 J. V. Ortiz, A. F. Izmaylov, J. L. Sonnenberg, D. Williams-Young, 
 F. Ding, F. Lipparini, F. Egidi, J. Goings, B. Peng, A. Petrone, 
 T. Henderson, D. Ranasinghe, V. G. Zakrzewski, J. Gao, N. Rega, 
 G. Zheng, W. Liang, M. Hada, M. Ehara, K. Toyota, R. Fukuda, 
 J. Hasegawa, M. Ishida, T. Nakajima, Y. Honda, O. Kitao, H. Nakai, 
 T. Vreven, K. Throssell, J. A. Montgomery, Jr., J. E. Peralta, 
 F. Ogliaro, M. J. Bearpark, J. J. Heyd, E. N. Brothers, K. N. Kudin, 
 V. N. Staroverov, T. A. Keith, R. Kobayashi, J. Normand, 
 K. Raghavachari, A. P. Rendell, J. C. Burant, S. S. Iyengar, 
 J. Tomasi, M. Cossi, J. M. Millam, M. Klene, C. Adamo, R. Cammi, 
 J. W. Ochterski, R. L. Martin, K. Morokuma, O. Farkas, 
 J. B. Foresman, and D. J. Fox, Gaussian, Inc., Wallingford CT, 2019.
 
 ******************************************
 Gaussian 16:  ES64L-G16RevC.01  3-Jul-2019
                 8-Oct-2025 
 ******************************************
 %nprocshared=32
 Will use up to   32 processors via shared memory.
 %mem=64GB
 %oldchk=05BDP-NH2_ethanol_m062x_m062x_m062x.chk
 %chk=06BDP-NH2_ethanol_m062x_m062x_m062x.chk
 Copying data from "05BDP-NH2_ethanol_m062x_m062x_m062x.chk" to current chk file "06BDP-NH2_ethanol_m062x_m062x_m062x.chk"
 IOpt=  2 FromEx=T IUOpen= 4 IOptOp= 5 NList=   0 IFRang= 0 IUIn= 4 IUOut= 2.
 ----------------------------------------------------------------------
 # m062x/def2tzvp geom=check guess=read TD=(Read, NStates=3, Root=1) SC
 RF=(SMD, solvent=ethanol, CorrectedLR, NonEq=Save)
 ----------------------------------------------------------------------
 1/29=2,30=1,38=1,172=1/1;
 2/12=2,40=1/2;
 3/5=44,7=101,11=9,14=-4,25=1,30=1,70=9032201,71=1,72=4,74=-55,116=-2/1,2,3,8;
 4/5=1/1;
 5/5=2,38=6,53=4/2;
 8/6=1,10=1,107=1,108=3/1;
 9/8=1,15=1,41=3,42=1,49=3,70=2,73=22/14;
 10/5=4,13=10,28=1,74=20/2;
 6/7=2,8=2,9=2,10=2,22=-1/1;
 99/5=1,9=1/99;
 ---------------------------------
 BDP-NH2_ethanol_m062x_m062x_m062x
 ---------------------------------
 Structure from the checkpoint file:  "06BDP-NH2_ethanol_m062x_m062x_m062x.chk"
 Charge =  0 Multiplicity = 1
 Redundant internal coordinates found in file.  (old form).
 C,0,0.5997381823,-1.2413662214,0.0071832315
 C,0,0.6235046174,1.2244652397,0.0039217447
 C,0,-0.1066000491,-0.001527433,0.0063794336
 C,0,0.1311543809,-2.5648025671,-0.0099231282
 C,0,1.2745339692,-3.3992040941,-0.0079355112
 C,0,2.3830551785,-2.5654103654,0.0103778121
 H,0,1.2941354412,-4.4866955676,-0.0200027114
 C,0,2.4319992208,2.5139086784,0.004773311
 C,0,0.1805035242,2.5566510561,-0.0156791728
 C,0,1.3397505841,3.3688695433,-0.0152008048
 H,0,1.3803001441,4.4557593398,-0.0291287199
 N,0,1.9776023618,-1.2632896841,0.0195207541
 N,0,2.0015338771,1.2198586892,0.0163127047
 B,0,2.9037630603,-0.0304668683,0.0669410924
 F,0,3.6667362064,-0.0362827389,1.2449114044
 F,0,3.7907175107,-0.0404350025,-1.0191685698
 C,0,-1.5628750386,0.0126025155,-0.0009494158
 C,0,-2.2876802938,0.0135663072,-1.2370357876
 C,0,-2.2983784917,0.0269537334,1.228736884
 C,0,-3.6497045329,0.026990613,-1.2564364972
 H,0,-1.7238779671,0.0028084454,-2.1708261226
 C,0,-3.6603799265,0.0416467182,1.2360022852
 H,0,-1.7426861714,0.0263504262,2.167415659
 C,0,-4.3777943292,0.0417203673,-0.0133271024
 H,0,-4.2107255008,0.0271595298,-2.1915964258
 H,0,-4.2300174668,0.0533351881,2.1658897704
 H,0,-0.8595186521,2.8769992916,-0.030920931
 H,0,3.4958846414,2.7450503622,0.0121850492
 H,0,-0.9148411575,-2.8650843026,-0.0248681455
 H,0,3.4422932965,-2.8169907128,0.0178616834
 N,0,-5.6903938736,0.0551965245,-0.018463011
 H,0,-6.21702384,0.0657466968,0.8532468418
 H,0,-6.210564906,0.055395292,-0.8940996043
 Recover connectivity data from disk.
                           ----------------------------
                           !    Current Parameters    !
                           ! (Angstroms and Degrees)  !
 --------------------------                            --------------------------
 ! Name  Definition              Value                                          !
 --------------------------------------------------------------------------------
 ! R1    R(1,3)                  1.4269                                         !
 ! R2    R(1,4)                  1.404                                          !
 ! R3    R(1,12)                 1.3781                                         !
 ! R4    R(2,3)                  1.4269                                         !
 ! R5    R(2,9)                  1.404                                          !
 ! R6    R(2,13)                 1.3781                                         !
 ! R7    R(3,17)                 1.4564                                         !
 ! R8    R(4,5)                  1.4155                                         !
 ! R9    R(4,29)                 1.0883                                         !
 ! R10   R(5,6)                  1.3872                                         !
 ! R11   R(5,7)                  1.0877                                         !
 ! R12   R(6,12)                 1.3638                                         !
 ! R13   R(6,30)                 1.0887                                         !
 ! R14   R(8,10)                 1.3872                                         !
 ! R15   R(8,13)                 1.3638                                         !
 ! R16   R(8,28)                 1.0887                                         !
 ! R17   R(9,10)                 1.4155                                         !
 ! R18   R(9,27)                 1.0883                                         !
 ! R19   R(10,11)                1.0877                                         !
 ! R20   R(12,14)                1.5427                                         !
 ! R21   R(13,14)                1.5427                                         !
 ! R22   R(14,15)                1.4035                                         !
 ! R23   R(14,16)                1.4023                                         !
 ! R24   R(17,18)                1.4329                                         !
 ! R25   R(17,19)                1.4329                                         !
 ! R26   R(18,20)                1.3622                                         !
 ! R27   R(18,21)                1.0908                                         !
 ! R28   R(19,22)                1.3621                                         !
 ! R29   R(19,23)                1.0908                                         !
 ! R30   R(20,24)                1.4407                                         !
 ! R31   R(20,25)                1.0905                                         !
 ! R32   R(22,24)                1.4407                                         !
 ! R33   R(22,26)                1.0906                                         !
 ! R34   R(24,31)                1.3127                                         !
 ! R35   R(31,32)                1.0185                                         !
 ! R36   R(31,33)                1.0185                                         !
 ! A1    A(3,1,4)              130.8282                                         !
 ! A2    A(3,1,12)             120.5808                                         !
 ! A3    A(4,1,12)             108.5901                                         !
 ! A4    A(3,2,9)              130.8284                                         !
 ! A5    A(3,2,13)             120.5807                                         !
 ! A6    A(9,2,13)             108.5903                                         !
 ! A7    A(1,3,2)              119.5551                                         !
 ! A8    A(1,3,17)             120.2259                                         !
 ! A9    A(2,3,17)             120.2177                                         !
 ! A10   A(1,4,5)              106.6211                                         !
 ! A11   A(1,4,29)             125.5198                                         !
 ! A12   A(5,4,29)             127.8588                                         !
 ! A13   A(4,5,6)              106.9295                                         !
 ! A14   A(4,5,7)              127.1495                                         !
 ! A15   A(6,5,7)              125.9209                                         !
 ! A16   A(5,6,12)             109.657                                          !
 ! A17   A(5,6,30)             129.6914                                         !
 ! A18   A(12,6,30)            120.6516                                         !
 ! A19   A(10,8,13)            109.657                                          !
 ! A20   A(10,8,28)            129.6914                                         !
 ! A21   A(13,8,28)            120.6515                                         !
 ! A22   A(2,9,10)             106.6209                                         !
 ! A23   A(2,9,27)             125.5196                                         !
 ! A24   A(10,9,27)            127.8593                                         !
 ! A25   A(8,10,9)             106.9296                                         !
 ! A26   A(8,10,11)            125.9209                                         !
 ! A27   A(9,10,11)            127.1495                                         !
 ! A28   A(1,12,6)             108.2023                                         !
 ! A29   A(1,12,14)            126.0024                                         !
 ! A30   A(6,12,14)            125.7828                                         !
 ! A31   A(2,13,8)             108.2021                                         !
 ! A32   A(2,13,14)            126.0024                                         !
 ! A33   A(8,13,14)            125.7822                                         !
 ! A34   A(12,14,13)           107.1917                                         !
 ! A35   A(12,14,15)           110.4175                                         !
 ! A36   A(12,14,16)           110.5019                                         !
 ! A37   A(13,14,15)           110.4163                                         !
 ! A38   A(13,14,16)           110.503                                          !
 ! A39   A(15,14,16)           107.8302                                         !
 ! A40   A(3,17,18)            120.6733                                         !
 ! A41   A(3,17,19)            120.5994                                         !
 ! A42   A(18,17,19)           118.7272                                         !
 ! A43   A(17,18,20)           121.2009                                         !
 ! A44   A(17,18,21)           118.4893                                         !
 ! A45   A(20,18,21)           120.3098                                         !
 ! A46   A(17,19,22)           121.1937                                         !
 ! A47   A(17,19,23)           118.4882                                         !
 ! A48   A(22,19,23)           120.3181                                         !
 ! A49   A(18,20,24)           119.5448                                         !
 ! A50   A(18,20,25)           121.7748                                         !
 ! A51   A(24,20,25)           118.6804                                         !
 ! A52   A(19,22,24)           119.5587                                         !
 ! A53   A(19,22,26)           121.8004                                         !
 ! A54   A(24,22,26)           118.6409                                         !
 ! A55   A(20,24,22)           119.7746                                         !
 ! A56   A(20,24,31)           120.1368                                         !
 ! A57   A(22,24,31)           120.0886                                         !
 ! A58   A(24,31,32)           120.9169                                         !
 ! A59   A(24,31,33)           120.9349                                         !
 ! A60   A(32,31,33)           118.1482                                         !
 ! D1    D(4,1,3,2)           -178.9544                                         !
 ! D2    D(4,1,3,17)             0.6356                                         !
 ! D3    D(12,1,3,2)             0.6719                                         !
 ! D4    D(12,1,3,17)         -179.7381                                         !
 ! D5    D(3,1,4,5)            179.6465                                         !
 ! D6    D(3,1,4,29)            -0.1775                                         !
 ! D7    D(12,1,4,5)            -0.014                                          !
 ! D8    D(12,1,4,29)         -179.838                                          !
 ! D9    D(3,1,12,6)          -179.6926                                         !
 ! D10   D(3,1,12,14)            1.5391                                         !
 ! D11   D(4,1,12,6)             0.009                                          !
 ! D12   D(4,1,12,14)         -178.7593                                         !
 ! D13   D(9,2,3,1)            179.0093                                         !
 ! D14   D(9,2,3,17)            -0.5807                                         !
 ! D15   D(13,2,3,1)            -0.6756                                         !
 ! D16   D(13,2,3,17)          179.7344                                         !
 ! D17   D(3,2,9,10)          -179.6982                                         !
 ! D18   D(3,2,9,27)             0.1458                                         !
 ! D19   D(13,2,9,10)            0.0155                                         !
 ! D20   D(13,2,9,27)          179.8596                                         !
 ! D21   D(3,2,13,8)           179.7393                                         !
 ! D22   D(3,2,13,14)           -1.5314                                         !
 ! D23   D(9,2,13,8)            -0.0091                                         !
 ! D24   D(9,2,13,14)          178.7202                                         !
 ! D25   D(1,3,17,18)          -89.5872                                         !
 ! D26   D(1,3,17,19)           90.4658         Frozen                          !
 ! D27   D(2,3,17,18)           90.0            Frozen                          !
 ! D28   D(2,3,17,19)          -89.947                                          !
 ! D29   D(1,4,5,6)              0.0136                                         !
 ! D30   D(1,4,5,7)           -179.8941                                         !
 ! D31   D(29,4,5,6)           179.8322                                         !
 ! D32   D(29,4,5,7)            -0.0756                                         !
 ! D33   D(4,5,6,12)            -0.0084                                         !
 ! D34   D(4,5,6,30)           179.9698                                         !
 ! D35   D(7,5,6,12)           179.9007                                         !
 ! D36   D(7,5,6,30)            -0.121                                          !
 ! D37   D(5,6,12,1)            -0.0003                                         !
 ! D38   D(5,6,12,14)          178.7715                                         !
 ! D39   D(30,6,12,1)         -179.9808                                         !
 ! D40   D(30,6,12,14)          -1.2091                                         !
 ! D41   D(13,8,10,9)            0.0108                                         !
 ! D42   D(13,8,10,11)        -179.9118                                         !
 ! D43   D(28,8,10,9)         -179.9469                                         !
 ! D44   D(28,8,10,11)           0.1305                                         !
 ! D45   D(10,8,13,2)           -0.0012                                         !
 ! D46   D(10,8,13,14)        -178.734                                          !
 ! D47   D(28,8,13,2)          179.961                                          !
 ! D48   D(28,8,13,14)           1.2282                                         !
 ! D49   D(2,9,10,8)            -0.0159                                         !
 ! D50   D(2,9,10,11)          179.9054                                         !
 ! D51   D(27,9,10,8)         -179.8552                                         !
 ! D52   D(27,9,10,11)           0.0662                                         !
 ! D53   D(1,12,14,13)          -3.1612                                         !
 ! D54   D(1,12,14,15)         117.157                                          !
 ! D55   D(1,12,14,16)        -123.6333                                         !
 ! D56   D(6,12,14,13)         178.2812                                         !
 ! D57   D(6,12,14,15)         -61.4007                                         !
 ! D58   D(6,12,14,16)          57.809                                          !
 ! D59   D(2,13,14,12)           3.1573                                         !
 ! D60   D(2,13,14,15)        -117.1616                                         !
 ! D61   D(2,13,14,16)         123.6287                                         !
 ! D62   D(8,13,14,12)        -178.3307                                         !
 ! D63   D(8,13,14,15)          61.3504                                         !
 ! D64   D(8,13,14,16)         -57.8593                                         !
 ! D65   D(3,17,18,20)        -179.9867                                         !
 ! D66   D(3,17,18,21)           0.0403                                         !
 ! D67   D(19,17,18,20)         -0.0387                                         !
 ! D68   D(19,17,18,21)        179.9883                                         !
 ! D69   D(3,17,19,22)         179.9314                                         !
 ! D70   D(3,17,19,23)          -0.041                                          !
 ! D71   D(18,17,19,22)         -0.0166                                         !
 ! D72   D(18,17,19,23)       -179.989                                          !
 ! D73   D(17,18,20,24)          0.0564                                         !
 ! D74   D(17,18,20,25)       -179.9576                                         !
 ! D75   D(21,18,20,24)       -179.9711                                         !
 ! D76   D(21,18,20,25)          0.0149                                         !
 ! D77   D(17,19,22,24)          0.0505                                         !
 ! D78   D(17,19,22,26)       -179.9573                                         !
 ! D79   D(23,19,22,24)       -179.9776                                         !
 ! D80   D(23,19,22,26)          0.0146                                         !
 ! D81   D(18,20,24,22)         -0.0215                                         !
 ! D82   D(18,20,24,31)        179.9769                                         !
 ! D83   D(25,20,24,22)        179.9921                                         !
 ! D84   D(25,20,24,31)         -0.0095                                         !
 ! D85   D(19,22,24,20)         -0.0323                                         !
 ! D86   D(19,22,24,31)        179.9692                                         !
 ! D87   D(26,22,24,20)        179.9753                                         !
 ! D88   D(26,22,24,31)         -0.0232                                         !
 ! D89   D(20,24,31,32)       -179.9963                                         !
 ! D90   D(20,24,31,33)          0.0036                                         !
 ! D91   D(22,24,31,32)          0.0021                                         !
 ! D92   D(22,24,31,33)       -179.9979                                         !
 --------------------------------------------------------------------------------
                          Input orientation:                          
 ---------------------------------------------------------------------
 Center     Atomic      Atomic             Coordinates (Angstroms)
 Number     Number       Type             X           Y           Z
 ---------------------------------------------------------------------
      1          6           0        0.599738   -1.241366    0.007183
      2          6           0        0.623505    1.224465    0.003922
      3          6           0       -0.106600   -0.001527    0.006379
      4          6           0        0.131154   -2.564803   -0.009923
      5          6           0        1.274534   -3.399204   -0.007936
      6          6           0        2.383055   -2.565410    0.010378
      7          1           0        1.294135   -4.486696   -0.020003
      8          6           0        2.431999    2.513909    0.004773
      9          6           0        0.180504    2.556651   -0.015679
     10          6           0        1.339751    3.368870   -0.015201
     11          1           0        1.380300    4.455759   -0.029129
     12          7           0        1.977602   -1.263290    0.019521
     13          7           0        2.001534    1.219859    0.016313
     14          5           0        2.903763   -0.030467    0.066941
     15          9           0        3.666736   -0.036283    1.244911
     16          9           0        3.790718   -0.040435   -1.019169
     17          6           0       -1.562875    0.012603   -0.000949
     18          6           0       -2.287680    0.013566   -1.237036
     19          6           0       -2.298378    0.026954    1.228737
     20          6           0       -3.649705    0.026991   -1.256436
     21          1           0       -1.723878    0.002808   -2.170826
     22          6           0       -3.660380    0.041647    1.236002
     23          1           0       -1.742686    0.026350    2.167416
     24          6           0       -4.377794    0.041720   -0.013327
     25          1           0       -4.210726    0.027160   -2.191596
     26          1           0       -4.230017    0.053335    2.165890
     27          1           0       -0.859519    2.876999   -0.030921
     28          1           0        3.495885    2.745050    0.012185
     29          1           0       -0.914841   -2.865084   -0.024868
     30          1           0        3.442293   -2.816991    0.017862
     31          7           0       -5.690394    0.055197   -0.018463
     32          1           0       -6.217024    0.065747    0.853247
     33          1           0       -6.210565    0.055395   -0.894100
 ---------------------------------------------------------------------
                    Distance matrix (angstroms):
                    1          2          3          4          5
     1  C    0.000000
     2  C    2.465948   0.000000
     3  C    1.426925   1.426926   0.000000
     4  C    1.404047   3.821145   2.574329   0.000000
     5  C    2.260938   4.669293   3.667689   1.415467   0.000000
     6  C    2.221108   4.178423   3.573779   2.251992   1.387215
     7  H    3.318899   5.750450   4.698882   2.246397   1.087735
     8  C    4.178430   2.221107   3.573781   5.575609   6.025346
     9  C    3.821154   1.404049   2.574333   5.121695   6.055508
    10  C    4.669303   2.260939   3.667693   6.055510   6.768392
    11  H    5.750464   3.318899   4.698887   7.130850   7.855704
    12  N    1.378094   2.832446   2.436415   2.259242   2.248820
    13  N    2.832445   1.378093   2.436414   4.221690   4.675987
    14  B    2.603532   2.603537   3.011111   3.757143   3.742778
    15  F    3.520039   3.520057   3.971553   4.524197   4.312945
    16  F    3.560616   3.560607   4.030179   4.558883   4.316839
    17  C    2.499880   2.499778   1.456362   3.084288   4.437495
    18  C    3.385280   3.388399   2.510661   3.742266   5.084000
    19  C    3.391152   3.386976   2.509753   3.762195   5.102315
    20  C    4.611207   4.613325   3.761530   4.750377   6.127454
    21  H    3.419194   3.425227   2.712163   3.834485   5.024168
    22  C    4.615704   4.611805   3.760743   4.766722   6.143306
    23  H    3.429382   3.422725   2.710652   3.868612   5.056698
    24  C    5.140288   5.139278   4.271459   5.208127   6.617311
    25  H    5.439150   5.442759   4.655724   5.507258   6.826157
    26  H    5.446357   5.440802   4.655004   5.532506   6.851688
    27  H    4.369418   2.220685   2.975600   5.531282   6.629136
    28  H    4.927393   3.250048   4.530079   6.286210   6.533503
    29  H    2.220684   4.369411   2.975599   1.088347   2.253649
    30  H    3.250050   4.927386   4.530078   3.320845   2.244731
    31  N    6.422421   6.421293   5.584137   6.383956   7.774523
    32  H    6.992325   6.989765   6.169197   6.925620   8.298853
    33  H    6.991003   6.991257   6.170291   6.918425   8.291336
                    6          7          8          9         10
     6  C    0.000000
     7  H    2.208621   0.000000
     8  C    5.079558   7.092518   0.000000
     9  C    5.575610   7.130843   2.251994   0.000000
    10  C    6.025348   7.855699   1.387215   1.415469   0.000000
    11  H    7.092524   8.942875   2.208620   2.246398   1.087735
    12  N    1.363816   3.295305   3.804461   4.221700   4.675998
    13  N    3.804452   5.750347   1.363818   2.259245   2.248821
    14  B    2.588489   4.738822   2.588489   3.757146   3.742776
    15  F    3.093283   5.199559   3.092894   4.523960   4.312517
    16  F    3.068710   5.196199   3.069079   4.559111   4.317238
    17  C    4.713454   5.329780   4.713341   3.084116   4.437338
    18  C    5.479318   5.879025   5.483537   3.748456   5.090108
    19  C    5.488221   5.902418   5.482655   3.754037   5.094288
    20  C    6.687268   6.807620   6.690481   4.754908   6.132168
    21  H    5.312278   5.821520   5.320730   3.846224   5.036160
    22  C    6.694924   6.828664   6.689177   4.758607   6.134919
    23  H    5.328394   5.862991   5.319113   3.855773   5.043577
    24  C    7.246156   7.257919   7.244676   5.206050   6.615153
    25  H    7.419438   7.442728   7.425211   5.515055   6.834582
    26  H    7.432146   7.477050   7.423430   5.520736   6.839023
    27  H    6.335283   7.672180   3.311676   1.088348   2.253657
    28  H    5.425807   7.559556   1.088730   3.320847   2.244730
    29  H    3.311671   2.740296   6.335281   5.531282   6.629137
    30  H    1.088730   2.721016   5.425804   6.286209   6.533502
    31  N    8.488168   8.331413   8.486405   6.381592   7.771961
    32  H    9.032983   8.826370   9.028788   6.920115   8.292748
    33  H    9.029784   8.815620   9.030292   6.919079   8.292095
                   11         12         13         14         15
    11  H    0.000000
    12  N    5.750362   0.000000
    13  N    3.295307   2.483266   0.000000
    14  B    4.738818   1.542684   1.542691   0.000000
    15  F    5.198982   2.420806   2.420794   1.403487   0.000000
    16  F    5.196735   2.421081   2.421103   1.402292   2.267476
    17  C    5.329608   3.763416   3.763346   4.467362   5.376188
    18  C    5.886102   4.626222   4.628540   5.352885   6.451172
    19  C    5.893150   4.627196   4.624094   5.330604   5.965472
    20  C    6.813312   5.912654   5.914332   6.685998   7.732467
    21  H    5.835372   4.483479   4.488149   5.140406   6.381811
    22  C    6.818607   5.913504   5.910422   6.667824   7.327536
    23  H    5.847864   4.485217   4.480055   5.099482   5.487876
    24  C    7.255318   6.488081   6.487273   7.282358   8.142710
    25  H    7.453075   6.696992   6.699967   7.464600   8.594650
    26  H    7.461575   6.698876   6.694303   7.436628   7.950783
    27  H    2.740306   5.019342   3.306655   4.756598   5.531902
    28  H    2.721016   4.286260   2.135254   2.838503   3.047067
    29  H    7.672186   3.306652   5.019332   4.756598   5.532207
    30  H    7.559558   2.135254   4.286250   2.838510   3.047681
    31  N    8.328252   7.780618   7.779679   8.595008   9.442477
    32  H    8.818737   8.343461   8.341290   9.155124   9.892043
    33  H    8.816610   8.343843   8.344063   9.165258  10.106674
                   16         17         18         19         20
    16  F    0.000000
    17  C    5.449820   0.000000
    18  C    6.082541   1.432918   0.000000
    19  C    6.491126   1.432934   2.465832   0.000000
    20  C    7.444510   2.435429   1.362229   2.828810   0.000000
    21  H    5.633733   2.175864   1.090850   3.447849   2.132018
    22  C    7.785331   2.435245   2.828606   1.362100   2.492505
    23  H    6.385713   2.175851   3.447821   1.090831   3.919118
    24  C    8.230617   2.815097   2.422154   2.422171   1.440713
    25  H    8.087166   3.436606   2.146968   3.918641   1.090536
    26  H    8.630503   3.436641   3.918438   2.147133   3.471278
    27  H    5.577881   2.949640   3.419592   3.432174   4.172478
    28  H    2.984886   5.749565   6.516992   6.514717   7.749625
    29  H    5.577594   2.949848   3.411842   3.442323   4.166574
    30  H    2.984308   5.749666   6.513019   6.519935   7.746515
    31  N    9.534256   4.127776   3.614569   3.614149   2.387004
    32  H   10.181950   4.732185   4.451039   3.936785   3.323160
    33  H   10.002523   4.732924   3.938068   4.451117   2.586523
                   21         22         23         24         25
    21  H    0.000000
    22  C    3.918932   0.000000
    23  H    4.338346   2.131974   0.000000
    24  C    3.420466   1.440662   3.420478   0.000000
    25  H    2.487053   3.471530   5.009212   2.184715   0.000000
    26  H    5.009031   1.090557   2.487478   2.184253   4.357608
    27  H    3.686093   4.182002   3.706598   4.518559   4.901091
    28  H    6.287396   7.747144   6.283229   8.324870   8.463771
    29  H    3.672123   4.192477   3.721805   4.521249   4.891078
    30  H    6.279407   7.752654   6.291994   8.326282   8.458108
    31  N    4.513165   2.386383   4.512571   1.312679   2.629204
    32  H    5.416395   2.585249   4.663506   2.033296   3.646614
    33  H    4.665100   3.322795   5.416240   2.033469   2.384041
                   26         27         28         29         30
    26  H    0.000000
    27  H    4.915213   0.000000
    28  H    8.460103   4.357615   0.000000
    29  H    4.930212   5.742353   7.136490   0.000000
    30  H    8.468598   7.136490   5.562302   4.357609   0.000000
    31  N    2.627565   5.594648   9.572041   5.597677   9.573753
    32  H    2.381466   6.114553  10.110719   6.121601  10.114863
    33  H    3.645011   6.110665  10.112901   6.109783  10.112366
                   31         32         33
    31  N    0.000000
    32  H    1.018493   0.000000
    33  H    1.018488   1.747389   0.000000
 Stoichiometry    C15H12BF2N3
 Framework group  C1[X(C15H12BF2N3)]
 Deg. of freedom    93
 Full point group                 C1      NOp   1
 Largest Abelian subgroup         C1      NOp   1
 Largest concise Abelian subgroup C1      NOp   1
                         Standard orientation:                         
 ---------------------------------------------------------------------
 Center     Atomic      Atomic             Coordinates (Angstroms)
 Number     Number       Type             X           Y           Z
 ---------------------------------------------------------------------
      1          6           0        0.616978    1.233235    0.012277
      2          6           0        0.615929   -1.232712    0.014834
      3          6           0       -0.101766    0.000560    0.006335
      4          6           0        0.161586    2.561311    0.025704
      5          6           0        1.313266    3.384175    0.034202
      6          6           0        2.413470    2.539284    0.025445
      7          1           0        1.343689    4.471411    0.046847
      8          6           0        2.411308   -2.540272    0.029598
      9          6           0        0.159404   -2.560382    0.029997
     10          6           0        1.310387   -3.384214    0.039534
     11          1           0        1.339885   -4.471460    0.053419
     12          7           0        1.995048    1.241308    0.012210
     13          7           0        1.993991   -1.241956    0.014709
     14          5           0        2.909156   -0.000750   -0.027424
     15          9           0        3.682606   -0.002274   -1.198555
     16          9           0        3.786462   -0.000006    1.066540
     17          6           0       -1.558117    0.001070    0.000698
     18          6           0       -2.293871    0.007045    1.230285
     19          6           0       -2.282750   -0.005539   -1.235490
     20          6           0       -3.656080    0.007309    1.237558
     21          1           0       -1.738324    0.011871    2.169059
     22          6           0       -3.644712   -0.006536   -1.254882
     23          1           0       -1.718745   -0.010258   -2.169186
     24          6           0       -4.373185    0.000251   -0.011987
     25          1           0       -4.225377    0.012517    2.167689
     26          1           0       -4.206137   -0.012235   -2.189806
     27          1           0       -0.883880   -2.870262    0.035864
     28          1           0        3.472841   -2.782096    0.031569
     29          1           0       -0.881431    2.872089    0.031451
     30          1           0        3.475208    2.780204    0.027481
     31          7           0       -5.685847   -0.000030   -0.018537
     32          1           0       -6.204775   -0.005039   -0.894903
     33          1           0       -6.213769    0.004755    0.852435
 ---------------------------------------------------------------------
 Rotational constants (GHZ):           0.5726073           0.2130430           0.1702714
 Standard basis: def2TZVP (5D, 7F)
 There are   828 symmetry adapted cartesian basis functions of A   symmetry.
 There are   723 symmetry adapted basis functions of A   symmetry.
   723 basis functions,  1167 primitive gaussians,   828 cartesian basis functions
    73 alpha electrons       73 beta electrons
       nuclear repulsion energy      1586.0406923696 Hartrees.
 NAtoms=   33 NActive=   33 NUniq=   33 SFac= 1.00D+00 NAtFMM=   60 NAOKFM=F Big=F
 Integral buffers will be    131072 words long.
 Regular integral format.
 Two-electron integral symmetry is turned on.
 ------------------------------------------------------------------------------
 Polarizable Continuum Model (PCM)
 =================================
 Model                : PCM.
 Atomic radii         : SMD-Coulomb.
 Polarization charges : Total charges.
 Charge compensation  : None.
 Solution method      : On-the-fly selection.
 Cavity type          : VdW (van der Waals Surface) (Alpha=1.000).
 Cavity algorithm     : GePol (No added spheres)
                        Default sphere list used, NSphG=   33.
                        Lebedev-Laikov grids with approx.  5.0 points / Ang**2.
                        Smoothing algorithm: York/Karplus (Gamma=1.0000).
                        Polarization charges: spherical gaussians, with
                                              point-specific exponents (IZeta= 3).
                        Self-potential: point-specific (ISelfS= 7).
                        Self-field    : sphere-specific E.n sum rule (ISelfD= 2).
 1st derivatives      : Analytical E(r).r(x)/FMM algorithm (CHGder, D1EAlg=3).
                        Cavity 1st derivative terms included.
 Solvent              : Ethanol, Eps=  24.852000 Eps(inf)=   1.852593
 ------------------------------------------------------------------------------
 ------------------------------------------------------------------------------
 Atomic radii for non-electrostatic terms: SMD-CDS.
 ------------------------------------------------------------------------------
 Nuclear repulsion after PCM non-electrostatic terms =     1586.0400355597 Hartrees.
 One-electron integrals computed using PRISM.
   1 Symmetry operations used in ECPInt.
 ECPInt:  NShTT=   39060 NPrTT=  121776 LenC2=   34419 LenP2D=   76755.
 LDataN:  DoStor=T MaxTD1= 6 Len=  172
 NBasis=   723 RedAO= T EigKep=  7.42D-06  NBF=   723
 NBsUse=   723 1.00D-06 EigRej= -1.00D+00 NBFU=   723
 Initial guess from the checkpoint file:  "06BDP-NH2_ethanol_m062x_m062x_m062x.chk"
 B after Tr=    -0.000000    0.000000   -0.000000
         Rot=    1.000000   -0.000000   -0.000000   -0.000000 Ang=   0.00 deg.
 Requested convergence on RMS density matrix=1.00D-08 within 128 cycles.
 Requested convergence on MAX density matrix=1.00D-06.
 Requested convergence on             energy=1.00D-06.
 No special actions if energy rises.
 Inv3:  Mode=1 IEnd=    20467632.
 Iteration    1 A*A^-1 deviation from unit magnitude is 4.55D-15 for   2608.
 Iteration    1 A*A^-1 deviation from orthogonality  is 1.77D-15 for   1043    242.
 Iteration    1 A^-1*A deviation from unit magnitude is 5.11D-15 for   2604.
 Iteration    1 A^-1*A deviation from orthogonality  is 1.27D-13 for   1188   1126.
 Error on total polarization charges =  0.04860
 SCF Done:  E(RM062X) =  -967.811105105     A.U. after    1 cycles
            NFock=  1  Conv=0.21D-08     -V/T= 2.0052
 SMD-CDS (non-electrostatic) energy       (kcal/mol) =      -0.41
 (included in total energy above)
 DoSCS=F DFT=T ScalE2(SS,OS)=  1.000000  1.000000
 ExpMin= 6.06D-02 ExpMax= 3.55D+04 ExpMxC= 1.21D+03 IAcc=3 IRadAn=         5 AccDes= 0.00D+00
 HarFok:  IExCor=  205 AccDes= 0.00D+00 IRadAn=         5 IDoV=-2 UseB2=F ITyADJ=14
 ICtDFT= 12500011 ScaDFX=  1.000000  1.000000  1.000000  1.000000
 GSVD:  LWork=        -609 too small for GESVD, short by        2520 words or        2520 for optimal perf.
 Range of M.O.s used for correlation:    22   723
 NBasis=   723 NAE=    73 NBE=    73 NFC=    21 NFV=     0
 NROrb=    702 NOA=    52 NOB=    52 NVA=   650 NVB=   650

 **** Warning!!: The largest alpha MO coefficient is  0.75936271D+02

 NEqPCM:  Using equilibrium solvation (IEInf=0, Eps=  24.8520, EpsInf=   1.8526)
 Orbital symmetries:
       Occupied  (A) (A) (A) (A) (A) (A) (A) (A) (A) (A) (A) (A)
                 (A) (A) (A) (A) (A) (A) (A) (A) (A) (A) (A) (A)
                 (A) (A) (A) (A) (A) (A) (A) (A) (A) (A) (A) (A)
                 (A) (A) (A) (A) (A) (A) (A) (A) (A) (A) (A) (A)
                 (A) (A) (A) (A) (A) (A) (A) (A) (A) (A) (A) (A)
                 (A) (A) (A) (A) (A) (A) (A) (A) (A) (A) (A) (A)
                 (A)
       Virtual   (A) (A) (A) (A) (A) (A) (A) (A) (A) (A) (A) (A)
                 (A) (A) (A) (A) (A) (A) (A) (A) (A) (A) (A) (A)
                 (A) (A) (A) (A) (A) (A) (A) (A) (A) (A) (A) (A)
                 (A) (A) (A) (A) (A) (A) (A) (A) (A) (A) (A) (A)
                 (A) (A) (A) (A) (A) (A) (A) (A) (A) (A) (A) (A)
                 (A) (A) (A) (A) (A) (A) (A) (A) (A) (A) (A) (A)
                 (A) (A) (A) (A) (A) (A) (A) (A) (A) (A) (A) (A)
                 (A) (A) (A) (A) (A) (A) (A) (A) (A) (A) (A) (A)
                 (A) (A) (A) (A) (A) (A) (A) (A) (A) (A) (A) (A)
                 (A) (A) (A) (A) (A) (A) (A) (A) (A) (A) (A) (A)
                 (A) (A) (A) (A) (A) (A) (A) (A) (A) (A) (A) (A)
                 (A) (A) (A) (A) (A) (A) (A) (A) (A) (A) (A) (A)
                 (A) (A) (A) (A) (A) (A) (A) (A) (A) (A) (A) (A)
                 (A) (A) (A) (A) (A) (A) (A) (A) (A) (A) (A) (A)
                 (A) (A) (A) (A) (A) (A) (A) (A) (A) (A) (A) (A)
                 (A) (A) (A) (A) (A) (A) (A) (A) (A) (A) (A) (A)
                 (A) (A) (A) (A) (A) (A) (A) (A) (A) (A) (A) (A)
                 (A) (A) (A) (A) (A) (A) (A) (A) (A) (A) (A) (A)
                 (A) (A) (A) (A) (A) (A) (A) (A) (A) (A) (A) (A)
                 (A) (A) (A) (A) (A) (A) (A) (A) (A) (A) (A) (A)
                 (A) (A) (A) (A) (A) (A) (A) (A) (A) (A) (A) (A)
                 (A) (A) (A) (A) (A) (A) (A) (A) (A) (A) (A) (A)
                 (A) (A) (A) (A) (A) (A) (A) (A) (A) (A) (A) (A)
                 (A) (A) (A) (A) (A) (A) (A) (A) (A) (A) (A) (A)
                 (A) (A) (A) (A) (A) (A) (A) (A) (A) (A) (A) (A)
                 (A) (A) (A) (A) (A) (A) (A) (A) (A) (A) (A) (A)
                 (A) (A) (A) (A) (A) (A) (A) (A) (A) (A) (A) (A)
                 (A) (A) (A) (A) (A) (A) (A) (A) (A) (A) (A) (A)
                 (A) (A) (A) (A) (A) (A) (A) (A) (A) (A) (A) (A)
                 (A) (A) (A) (A) (A) (A) (A) (A) (A) (A) (A) (A)
                 (A) (A) (A) (A) (A) (A) (A) (A) (A) (A) (A) (A)
                 (A) (A) (A) (A) (A) (A) (A) (A) (A) (A) (A) (A)
                 (A) (A) (A) (A) (A) (A) (A) (A) (A) (A) (A) (A)
                 (A) (A) (A) (A) (A) (A) (A) (A) (A) (A) (A) (A)
                 (A) (A) (A) (A) (A) (A) (A) (A) (A) (A) (A) (A)
                 (A) (A) (A) (A) (A) (A) (A) (A) (A) (A) (A) (A)
                 (A) (A) (A) (A) (A) (A) (A) (A) (A) (A) (A) (A)
                 (A) (A) (A) (A) (A) (A) (A) (A) (A) (A) (A) (A)
                 (A) (A) (A) (A) (A) (A) (A) (A) (A) (A) (A) (A)
                 (A) (A) (A) (A) (A) (A) (A) (A) (A) (A) (A) (A)
                 (A) (A) (A) (A) (A) (A) (A) (A) (A) (A) (A) (A)
                 (A) (A) (A) (A) (A) (A) (A) (A) (A) (A) (A) (A)
                 (A) (A) (A) (A) (A) (A) (A) (A) (A) (A) (A) (A)
                 (A) (A) (A) (A) (A) (A) (A) (A) (A) (A) (A) (A)
                 (A) (A) (A) (A) (A) (A) (A) (A) (A) (A) (A) (A)
                 (A) (A) (A) (A) (A) (A) (A) (A) (A) (A) (A) (A)
                 (A) (A) (A) (A) (A) (A) (A) (A) (A) (A) (A) (A)
                 (A) (A) (A) (A) (A) (A) (A) (A) (A) (A) (A) (A)
                 (A) (A) (A) (A) (A) (A) (A) (A) (A) (A) (A) (A)
                 (A) (A) (A) (A) (A) (A) (A) (A) (A) (A) (A) (A)
                 (A) (A) (A) (A) (A) (A) (A) (A) (A) (A) (A) (A)
                 (A) (A) (A) (A) (A) (A) (A) (A) (A) (A) (A) (A)
                 (A) (A) (A) (A) (A) (A) (A) (A) (A) (A) (A) (A)
                 (A) (A) (A) (A) (A) (A) (A) (A) (A) (A) (A) (A)
                 (A) (A)
 Generating guess from checkpoint file densities.
 Convergence on wavefunction:    0.000001000000000
 Iteration     1 Dimension     6 NMult     0 NNew      6
 CISAX will form     6 AO SS matrices at one time.
 Iteration     2 Dimension    12 NMult     6 NNew      6
 Iteration     3 Dimension    18 NMult    12 NNew      6
 Iteration     4 Dimension    24 NMult    18 NNew      6
 Iteration     5 Dimension    30 NMult    24 NNew      6
 Iteration     6 Dimension    36 NMult    30 NNew      6
 Iteration     7 Dimension    42 NMult    36 NNew      6
 Iteration     8 Dimension    48 NMult    42 NNew      6
 Iteration     9 Dimension    52 NMult    48 NNew      4
 Iteration    10 Dimension    54 NMult    52 NNew      2
 PCM Corrected Linear-Response:
 The state of interest is root number   1
 Excitation energy =    2.1033 eV, Total energy =  -967.733811550    
 Recompute the excitation energies using the linear response reaction field.
 Convergence on wavefunction:    0.000001000000000
 Iteration     1 Dimension     6 NMult     0 NNew      6
 Iteration     2 Dimension    12 NMult     6 NNew      6
 Iteration     3 Dimension    18 NMult    12 NNew      6
 Iteration     4 Dimension    24 NMult    18 NNew      6
 Iteration     5 Dimension    30 NMult    24 NNew      6
 Iteration     6 Dimension    36 NMult    30 NNew      6
 Iteration     7 Dimension    42 NMult    36 NNew      6
 Iteration     8 Dimension    46 NMult    42 NNew      4
 Iteration     9 Dimension    50 NMult    46 NNew      4
 Iteration    10 Dimension    52 NMult    50 NNew      2
 Iteration    11 Dimension    54 NMult    52 NNew      2
 Iteration    12 Dimension    56 NMult    54 NNew      2
 ***********************************************************************
 Excited states from <AA,BB:AA,BB> singles matrix:
 ***********************************************************************
 
 Ground to excited state transition densities written to RWF  633
 Ground to excited state transition electric dipole moments (Au):
       state          X           Y           Z        Dip. S.      Osc.
         1         0.0225      0.0154      0.0002      0.0007      0.0000
         2        -0.0014     -3.5783      0.0031     12.8043      0.8122
         3         0.0003      0.8430     -0.0008      0.7107      0.0641
 Ground to excited state transition velocity dipole moments (Au):
       state          X           Y           Z        Dip. S.      Osc.
         1        -0.0018     -0.0012     -0.0000      0.0000      0.0000
         2         0.0001      0.3518     -0.0003      0.1238      0.8673
         3        -0.0000     -0.1186      0.0001      0.0141      0.0693
 Ground to excited state transition magnetic dipole moments (Au):
       state          X           Y           Z
         1        -0.0968     -0.0001     -0.0002
         2        -0.0059     -0.0001     -0.4432
         3        -0.0007     -0.0014     -1.4648
 Ground to excited state transition velocity quadrupole moments (Au):
       state          XX          YY          ZZ          XY          XZ          YZ
         1         0.0095     -0.0044      0.0004     -0.0037      0.0001     -0.0035
         2         0.0010     -0.0002     -0.0000      1.0690     -0.0008      0.0200
         3         0.0001     -0.0004      0.0000      0.2228     -0.0003     -0.0051
 <0|del|b> * <b|rxdel|0> + <0|del|b> * <b|delr+rdel|0>
 Rotatory Strengths (R) in cgs (10**-40 erg-esu-cm/Gauss)
       state          XX          YY          ZZ    R(velocity)    E-M Angle
         1         0.0013      0.8211      0.7646      0.5290       34.21
         2         0.2194      1.7472     -1.1595      0.2690       89.96
         3        -0.0357     -0.5129      0.5497      0.0004       90.00
 1/2[<0|r|b>*<b|rxdel|0> + (<0|rxdel|b>*<b|r|0>)*]
 Rotatory Strengths (R) in cgs (10**-40 erg-esu-cm/Gauss)
       state          XX          YY          ZZ     R(length)
         1         1.5391      0.0012      0.0000      0.5134
         2        -0.0060     -0.1998      0.9849      0.2597
         3         0.0001      0.8577     -0.8500      0.0026
  1/2[<0|del|b>*<b|r|0> + (<0|r|b>*<b|del|0>)*] (Au)
       state          X           Y           Z        Dip. S.   Osc.(frdel)
         1        -0.0000     -0.0000     -0.0000      0.0001      0.0000
         2        -0.0000     -1.2590     -0.0000      1.2590      0.8393
         3        -0.0000     -0.1000     -0.0000      0.1000      0.0666

 Excitation energies and oscillator strengths:
 
 Excited State   1:      Singlet-A      2.1027 eV  589.63 nm  f=0.0000  <S**2>=0.000
      67 -> 74        -0.10783
      73 -> 74         0.69597
 This state for optimization and/or second-order correction.
 Total Energy, E(TD-HF/TD-DFT) =  -967.733830499    
 Copying the excited state density for this state as the 1-particle RhoCI density.
 
 Excited State   2:      Singlet-A      2.5891 eV  478.87 nm  f=0.8122  <S**2>=0.000
      72 -> 74         0.70101
 
 Excited State   3:      Singlet-A      3.6786 eV  337.04 nm  f=0.0641  <S**2>=0.000
      70 -> 74         0.19902
      71 -> 74         0.67404
 SavETr:  write IOETrn=   770 NScale= 10 NData=  16 NLR=1 NState=    3 LETran=      64.
 NEqPCM:  Using equilibrium solvation (IEInf=0, Eps=  24.8520, EpsInf=   1.8526)
          Differentiating once with respect to electric field.
                with respect to dipole field.
          Electric field/nuclear overlap derivatives assumed to be zero.
          There are     1 degrees of freedom in the 1st order CPHF.  IDoFFX=0 NUNeed=     1.
 LinEq1:  Iter=  0 NonCon=     1 RMS=3.43D-03 Max=1.68D-01 NDo=     1
 AX will form     1 AO Fock derivatives at one time.
 LinEq1:  Iter=  1 NonCon=     1 RMS=1.26D-03 Max=1.52D-01 NDo=     1
 LinEq1:  Iter=  2 NonCon=     1 RMS=9.15D-04 Max=1.20D-01 NDo=     1
 LinEq1:  Iter=  3 NonCon=     1 RMS=3.69D-04 Max=3.65D-02 NDo=     1
 LinEq1:  Iter=  4 NonCon=     1 RMS=1.67D-04 Max=1.31D-02 NDo=     1
 LinEq1:  Iter=  5 NonCon=     1 RMS=7.31D-05 Max=4.32D-03 NDo=     1
 LinEq1:  Iter=  6 NonCon=     1 RMS=2.91D-05 Max=2.04D-03 NDo=     1
 LinEq1:  Iter=  7 NonCon=     1 RMS=1.22D-05 Max=5.66D-04 NDo=     1
 LinEq1:  Iter=  8 NonCon=     1 RMS=5.48D-06 Max=4.42D-04 NDo=     1
 LinEq1:  Iter=  9 NonCon=     1 RMS=2.16D-06 Max=1.42D-04 NDo=     1
 LinEq1:  Iter= 10 NonCon=     1 RMS=1.19D-06 Max=8.00D-05 NDo=     1
 LinEq1:  Iter= 11 NonCon=     1 RMS=4.98D-07 Max=2.99D-05 NDo=     1
 LinEq1:  Iter= 12 NonCon=     1 RMS=2.37D-07 Max=1.69D-05 NDo=     1
 LinEq1:  Iter= 13 NonCon=     1 RMS=1.13D-07 Max=1.14D-05 NDo=     1
 LinEq1:  Iter= 14 NonCon=     1 RMS=6.15D-08 Max=6.23D-06 NDo=     1
 LinEq1:  Iter= 15 NonCon=     1 RMS=2.49D-08 Max=1.98D-06 NDo=     1
 LinEq1:  Iter= 16 NonCon=     1 RMS=9.58D-09 Max=5.72D-07 NDo=     1
 LinEq1:  Iter= 17 NonCon=     1 RMS=4.69D-09 Max=2.90D-07 NDo=     1
 LinEq1:  Iter= 18 NonCon=     1 RMS=1.47D-09 Max=7.19D-08 NDo=     1
 LinEq1:  Iter= 19 NonCon=     1 RMS=4.99D-10 Max=2.66D-08 NDo=     1
 LinEq1:  Iter= 20 NonCon=     1 RMS=2.68D-10 Max=1.29D-08 NDo=     1
 LinEq1:  Iter= 21 NonCon=     1 RMS=7.90D-11 Max=5.62D-09 NDo=     1
 LinEq1:  Iter= 22 NonCon=     1 RMS=3.06D-11 Max=2.71D-09 NDo=     1
 LinEq1:  Iter= 23 NonCon=     1 RMS=1.76D-11 Max=2.06D-09 NDo=     1
 LinEq1:  Iter= 24 NonCon=     0 RMS=6.28D-12 Max=5.48D-10 NDo=     1
 Linear equations converged to 1.000D-10 1.000D-09 after    24 iterations.
 PCM Corrected Linear-Response - Equilibrium solvation:
 Corrected transition energy               =    1.0978          eV
 Total energy after correction             = -967.770761979     a.u.
 NEqPCM:  Using non-equilibrium solvation (IEInf=1, Eps=  24.8520, EpsInf=   1.8526)
 Inv3:  Mode=1 IEnd=    20467632.
 Iteration    1 A*A^-1 deviation from unit magnitude is 4.44D-15 for   2610.
 Iteration    1 A*A^-1 deviation from orthogonality  is 2.16D-15 for   2612    602.
 Iteration    1 A^-1*A deviation from unit magnitude is 4.44D-15 for   2610.
 Iteration    1 A^-1*A deviation from orthogonality  is 1.97D-15 for   2313    885.
 End of Minotr F.D. properties file   721 does not exist.
 End of Minotr F.D. properties file   722 does not exist.
 End of Minotr F.D. properties file   788 does not exist.

 **********************************************************************

            Population analysis using the CI Density.

 **********************************************************************

 Orbital symmetries:
       Occupied  (A) (A) (A) (A) (A) (A) (A) (A) (A) (A) (A) (A)
                 (A) (A) (A) (A) (A) (A) (A) (A) (A) (A) (A) (A)
                 (A) (A) (A) (A) (A) (A) (A) (A) (A) (A) (A) (A)
                 (A) (A) (A) (A) (A) (A) (A) (A) (A) (A) (A) (A)
                 (A) (A) (A) (A) (A) (A) (A) (A) (A) (A) (A) (A)
                 (A) (A) (A) (A) (A) (A) (A) (A) (A) (A) (A) (A)
                 (A)
       Virtual   (A) (A) (A) (A) (A) (A) (A) (A) (A) (A) (A) (A)
                 (A) (A) (A) (A) (A) (A) (A) (A) (A) (A) (A) (A)
                 (A) (A) (A) (A) (A) (A) (A) (A) (A) (A) (A) (A)
                 (A) (A) (A) (A) (A) (A) (A) (A) (A) (A) (A) (A)
                 (A) (A) (A) (A) (A) (A) (A) (A) (A) (A) (A) (A)
                 (A) (A) (A) (A) (A) (A) (A) (A) (A) (A) (A) (A)
                 (A) (A) (A) (A) (A) (A) (A) (A) (A) (A) (A) (A)
                 (A) (A) (A) (A) (A) (A) (A) (A) (A) (A) (A) (A)
                 (A) (A) (A) (A) (A) (A) (A) (A) (A) (A) (A) (A)
                 (A) (A) (A) (A) (A) (A) (A) (A) (A) (A) (A) (A)
                 (A) (A) (A) (A) (A) (A) (A) (A) (A) (A) (A) (A)
                 (A) (A) (A) (A) (A) (A) (A) (A) (A) (A) (A) (A)
                 (A) (A) (A) (A) (A) (A) (A) (A) (A) (A) (A) (A)
                 (A) (A) (A) (A) (A) (A) (A) (A) (A) (A) (A) (A)
                 (A) (A) (A) (A) (A) (A) (A) (A) (A) (A) (A) (A)
                 (A) (A) (A) (A) (A) (A) (A) (A) (A) (A) (A) (A)
                 (A) (A) (A) (A) (A) (A) (A) (A) (A) (A) (A) (A)
                 (A) (A) (A) (A) (A) (A) (A) (A) (A) (A) (A) (A)
                 (A) (A) (A) (A) (A) (A) (A) (A) (A) (A) (A) (A)
                 (A) (A) (A) (A) (A) (A) (A) (A) (A) (A) (A) (A)
                 (A) (A) (A) (A) (A) (A) (A) (A) (A) (A) (A) (A)
                 (A) (A) (A) (A) (A) (A) (A) (A) (A) (A) (A) (A)
                 (A) (A) (A) (A) (A) (A) (A) (A) (A) (A) (A) (A)
                 (A) (A) (A) (A) (A) (A) (A) (A) (A) (A) (A) (A)
                 (A) (A) (A) (A) (A) (A) (A) (A) (A) (A) (A) (A)
                 (A) (A) (A) (A) (A) (A) (A) (A) (A) (A) (A) (A)
                 (A) (A) (A) (A) (A) (A) (A) (A) (A) (A) (A) (A)
                 (A) (A) (A) (A) (A) (A) (A) (A) (A) (A) (A) (A)
                 (A) (A) (A) (A) (A) (A) (A) (A) (A) (A) (A) (A)
                 (A) (A) (A) (A) (A) (A) (A) (A) (A) (A) (A) (A)
                 (A) (A) (A) (A) (A) (A) (A) (A) (A) (A) (A) (A)
                 (A) (A) (A) (A) (A) (A) (A) (A) (A) (A) (A) (A)
                 (A) (A) (A) (A) (A) (A) (A) (A) (A) (A) (A) (A)
                 (A) (A) (A) (A) (A) (A) (A) (A) (A) (A) (A) (A)
                 (A) (A) (A) (A) (A) (A) (A) (A) (A) (A) (A) (A)
                 (A) (A) (A) (A) (A) (A) (A) (A) (A) (A) (A) (A)
                 (A) (A) (A) (A) (A) (A) (A) (A) (A) (A) (A) (A)
                 (A) (A) (A) (A) (A) (A) (A) (A) (A) (A) (A) (A)
                 (A) (A) (A) (A) (A) (A) (A) (A) (A) (A) (A) (A)
                 (A) (A) (A) (A) (A) (A) (A) (A) (A) (A) (A) (A)
                 (A) (A) (A) (A) (A) (A) (A) (A) (A) (A) (A) (A)
                 (A) (A) (A) (A) (A) (A) (A) (A) (A) (A) (A) (A)
                 (A) (A) (A) (A) (A) (A) (A) (A) (A) (A) (A) (A)
                 (A) (A) (A) (A) (A) (A) (A) (A) (A) (A) (A) (A)
                 (A) (A) (A) (A) (A) (A) (A) (A) (A) (A) (A) (A)
                 (A) (A) (A) (A) (A) (A) (A) (A) (A) (A) (A) (A)
                 (A) (A) (A) (A) (A) (A) (A) (A) (A) (A) (A) (A)
                 (A) (A) (A) (A) (A) (A) (A) (A) (A) (A) (A) (A)
                 (A) (A) (A) (A) (A) (A) (A) (A) (A) (A) (A) (A)
                 (A) (A) (A) (A) (A) (A) (A) (A) (A) (A) (A) (A)
                 (A) (A) (A) (A) (A) (A) (A) (A) (A) (A) (A) (A)
                 (A) (A) (A) (A) (A) (A) (A) (A) (A) (A) (A) (A)
                 (A) (A) (A) (A) (A) (A) (A) (A) (A) (A) (A) (A)
                 (A) (A) (A) (A) (A) (A) (A) (A) (A) (A) (A) (A)
                 (A) (A)
 The electronic state is 1-A.
 Alpha  occ. eigenvalues --  -25.20221 -25.20161 -14.78298 -14.78297 -14.75482
 Alpha  occ. eigenvalues --  -10.61404 -10.59340 -10.58939 -10.58938 -10.58573
 Alpha  occ. eigenvalues --  -10.58572 -10.55809 -10.55808 -10.55033 -10.55012
 Alpha  occ. eigenvalues --  -10.54919 -10.54328 -10.54328 -10.53580 -10.53576
 Alpha  occ. eigenvalues --   -7.12746  -1.32174  -1.28804  -1.10781  -1.08759
 Alpha  occ. eigenvalues --   -1.04684  -0.95953  -0.90994  -0.89214  -0.87492
 Alpha  occ. eigenvalues --   -0.84994  -0.82801  -0.81694  -0.75206  -0.69803
 Alpha  occ. eigenvalues --   -0.69513  -0.69455  -0.66198  -0.66047  -0.65693
 Alpha  occ. eigenvalues --   -0.62080  -0.60465  -0.60283  -0.59433  -0.58239
 Alpha  occ. eigenvalues --   -0.58051  -0.54199  -0.53293  -0.52087  -0.51491
 Alpha  occ. eigenvalues --   -0.50980  -0.50714  -0.49198  -0.49134  -0.49032
 Alpha  occ. eigenvalues --   -0.48092  -0.47320  -0.47069  -0.46928  -0.46497
 Alpha  occ. eigenvalues --   -0.46131  -0.45817  -0.44757  -0.42887  -0.42407
 Alpha  occ. eigenvalues --   -0.39743  -0.38477  -0.35040  -0.32566  -0.32255
 Alpha  occ. eigenvalues --   -0.31453  -0.27141  -0.24435
 Alpha virt. eigenvalues --   -0.09005   0.02028   0.03039   0.06003   0.06967
 Alpha virt. eigenvalues --    0.07305   0.07964   0.09128   0.09598   0.09755
 Alpha virt. eigenvalues --    0.10346   0.10624   0.11548   0.11705   0.12386
 Alpha virt. eigenvalues --    0.12436   0.13272   0.13955   0.14722   0.14869
 Alpha virt. eigenvalues --    0.15526   0.17037   0.18032   0.18085   0.18374
 Alpha virt. eigenvalues --    0.19629   0.19863   0.20067   0.20794   0.21352
 Alpha virt. eigenvalues --    0.22196   0.22779   0.23066   0.23744   0.23798
 Alpha virt. eigenvalues --    0.24864   0.26167   0.26219   0.26399   0.26693
 Alpha virt. eigenvalues --    0.27250   0.28411   0.29367   0.29508   0.31158
 Alpha virt. eigenvalues --    0.31245   0.31565   0.31871   0.32583   0.32890
 Alpha virt. eigenvalues --    0.32924   0.34080   0.34360   0.34400   0.35365
 Alpha virt. eigenvalues --    0.35774   0.36340   0.36471   0.36966   0.37272
 Alpha virt. eigenvalues --    0.38283   0.38501   0.39481   0.39759   0.40008
 Alpha virt. eigenvalues --    0.40047   0.40278   0.40694   0.41888   0.42344
 Alpha virt. eigenvalues --    0.42525   0.43723   0.44180   0.44402   0.44504
 Alpha virt. eigenvalues --    0.45110   0.45474   0.45503   0.45549   0.45867
 Alpha virt. eigenvalues --    0.47072   0.47309   0.48875   0.49070   0.49077
 Alpha virt. eigenvalues --    0.49590   0.49722   0.50789   0.50800   0.50955
 Alpha virt. eigenvalues --    0.51780   0.52653   0.53597   0.53814   0.54246
 Alpha virt. eigenvalues --    0.54295   0.55125   0.55563   0.57104   0.57531
 Alpha virt. eigenvalues --    0.59180   0.59551   0.60128   0.60956   0.62175
 Alpha virt. eigenvalues --    0.63108   0.63585   0.63821   0.64265   0.64295
 Alpha virt. eigenvalues --    0.65185   0.66131   0.67055   0.67462   0.67514
 Alpha virt. eigenvalues --    0.67888   0.68501   0.70297   0.70377   0.72036
 Alpha virt. eigenvalues --    0.72262   0.72734   0.72783   0.73334   0.74492
 Alpha virt. eigenvalues --    0.75074   0.75363   0.76012   0.76676   0.77757
 Alpha virt. eigenvalues --    0.78277   0.78753   0.78836   0.79128   0.79784
 Alpha virt. eigenvalues --    0.79837   0.79867   0.80787   0.81934   0.83222
 Alpha virt. eigenvalues --    0.83799   0.84691   0.85216   0.85357   0.85521
 Alpha virt. eigenvalues --    0.87848   0.88246   0.88713   0.89651   0.90602
 Alpha virt. eigenvalues --    0.90914   0.91327   0.94751   0.94895   0.96343
 Alpha virt. eigenvalues --    0.98906   0.99701   0.99774   1.00110   1.00919
 Alpha virt. eigenvalues --    1.00934   1.00975   1.01150   1.02407   1.02532
 Alpha virt. eigenvalues --    1.03162   1.03568   1.03883   1.06509   1.06552
 Alpha virt. eigenvalues --    1.06750   1.07794   1.10765   1.11227   1.12623
 Alpha virt. eigenvalues --    1.12767   1.13965   1.14299   1.14612   1.15061
 Alpha virt. eigenvalues --    1.16940   1.17128   1.17327   1.19297   1.19498
 Alpha virt. eigenvalues --    1.20995   1.22056   1.22351   1.23722   1.24671
 Alpha virt. eigenvalues --    1.25579   1.26611   1.26983   1.29206   1.29666
 Alpha virt. eigenvalues --    1.29944   1.30155   1.31728   1.32664   1.33074
 Alpha virt. eigenvalues --    1.33532   1.35999   1.37846   1.38084   1.38540
 Alpha virt. eigenvalues --    1.38953   1.40183   1.40748   1.41849   1.42235
 Alpha virt. eigenvalues --    1.43373   1.44888   1.45811   1.46151   1.48261
 Alpha virt. eigenvalues --    1.49147   1.49977   1.50664   1.51749   1.51930
 Alpha virt. eigenvalues --    1.52456   1.53147   1.53553   1.54562   1.55697
 Alpha virt. eigenvalues --    1.56027   1.56853   1.57825   1.58329   1.59064
 Alpha virt. eigenvalues --    1.59724   1.60171   1.61546   1.62687   1.63166
 Alpha virt. eigenvalues --    1.63866   1.64232   1.64930   1.65784   1.65800
 Alpha virt. eigenvalues --    1.66495   1.67665   1.68366   1.68870   1.69352
 Alpha virt. eigenvalues --    1.70018   1.70609   1.71193   1.73605   1.74275
 Alpha virt. eigenvalues --    1.75307   1.75771   1.77508   1.78069   1.79013
 Alpha virt. eigenvalues --    1.80519   1.82217   1.82996   1.83165   1.83288
 Alpha virt. eigenvalues --    1.83410   1.83485   1.85354   1.85712   1.86533
 Alpha virt. eigenvalues --    1.86773   1.88611   1.88953   1.89281   1.92425
 Alpha virt. eigenvalues --    1.92454   1.92802   1.94133   1.95080   1.96559
 Alpha virt. eigenvalues --    1.98132   1.98815   1.99956   2.02638   2.03443
 Alpha virt. eigenvalues --    2.03586   2.04315   2.05104   2.05512   2.07357
 Alpha virt. eigenvalues --    2.09297   2.09980   2.11313   2.11973   2.13026
 Alpha virt. eigenvalues --    2.14705   2.15709   2.15902   2.16159   2.17322
 Alpha virt. eigenvalues --    2.19298   2.20818   2.22023   2.22473   2.22827
 Alpha virt. eigenvalues --    2.23207   2.23955   2.24760   2.26314   2.26983
 Alpha virt. eigenvalues --    2.29329   2.29532   2.30020   2.31095   2.31920
 Alpha virt. eigenvalues --    2.32649   2.32881   2.33130   2.36206   2.38331
 Alpha virt. eigenvalues --    2.38709   2.39559   2.41355   2.42301   2.42963
 Alpha virt. eigenvalues --    2.43274   2.43969   2.46528   2.48263   2.50287
 Alpha virt. eigenvalues --    2.50855   2.51573   2.53962   2.54119   2.54395
 Alpha virt. eigenvalues --    2.55388   2.55708   2.57232   2.58194   2.58711
 Alpha virt. eigenvalues --    2.60312   2.60797   2.62054   2.62740   2.62898
 Alpha virt. eigenvalues --    2.63301   2.64094   2.64316   2.65552   2.66735
 Alpha virt. eigenvalues --    2.66954   2.67098   2.67771   2.68876   2.69075
 Alpha virt. eigenvalues --    2.69561   2.70184   2.70399   2.72171   2.73159
 Alpha virt. eigenvalues --    2.73601   2.73643   2.76426   2.76806   2.77272
 Alpha virt. eigenvalues --    2.77653   2.78377   2.79798   2.80493   2.80640
 Alpha virt. eigenvalues --    2.81017   2.81961   2.82204   2.82356   2.83503
 Alpha virt. eigenvalues --    2.84914   2.86139   2.86549   2.86772   2.87276
 Alpha virt. eigenvalues --    2.88827   2.90190   2.90474   2.90801   2.92733
 Alpha virt. eigenvalues --    2.93250   2.94100   2.94747   2.95018   2.97502
 Alpha virt. eigenvalues --    2.97677   2.98061   2.99427   2.99526   3.00197
 Alpha virt. eigenvalues --    3.00983   3.01379   3.02446   3.03823   3.04267
 Alpha virt. eigenvalues --    3.04938   3.05754   3.07693   3.07978   3.07993
 Alpha virt. eigenvalues --    3.08200   3.08635   3.11039   3.11115   3.11248
 Alpha virt. eigenvalues --    3.11827   3.11848   3.13290   3.13747   3.14228
 Alpha virt. eigenvalues --    3.14442   3.15377   3.17514   3.17663   3.18141
 Alpha virt. eigenvalues --    3.19082   3.19100   3.20285   3.20308   3.21552
 Alpha virt. eigenvalues --    3.21660   3.22030   3.22900   3.23084   3.25723
 Alpha virt. eigenvalues --    3.26608   3.27392   3.28138   3.28397   3.29199
 Alpha virt. eigenvalues --    3.30097   3.31891   3.32034   3.32225   3.32972
 Alpha virt. eigenvalues --    3.33019   3.35536   3.35691   3.36001   3.36474
 Alpha virt. eigenvalues --    3.37368   3.37875   3.38020   3.38500   3.39336
 Alpha virt. eigenvalues --    3.40795   3.42607   3.42622   3.44275   3.45008
 Alpha virt. eigenvalues --    3.45198   3.45745   3.47874   3.47906   3.48270
 Alpha virt. eigenvalues --    3.48998   3.50273   3.51968   3.52621   3.52895
 Alpha virt. eigenvalues --    3.53191   3.54407   3.54937   3.55122   3.55788
 Alpha virt. eigenvalues --    3.59722   3.60262   3.60810   3.61494   3.61517
 Alpha virt. eigenvalues --    3.62513   3.63601   3.64383   3.64868   3.66853
 Alpha virt. eigenvalues --    3.68771   3.69584   3.71567   3.72416   3.73319
 Alpha virt. eigenvalues --    3.75136   3.75415   3.78117   3.78256   3.78576
 Alpha virt. eigenvalues --    3.80481   3.82508   3.82974   3.83212   3.85980
 Alpha virt. eigenvalues --    3.87182   3.88318   3.88470   3.93758   3.94340
 Alpha virt. eigenvalues --    3.97503   3.97820   3.98408   4.00453   4.00479
 Alpha virt. eigenvalues --    4.01552   4.02554   4.03249   4.04957   4.05780
 Alpha virt. eigenvalues --    4.07707   4.07992   4.08386   4.10034   4.10337
 Alpha virt. eigenvalues --    4.11597   4.12086   4.14472   4.15039   4.16313
 Alpha virt. eigenvalues --    4.17567   4.18613   4.20140   4.21221   4.22623
 Alpha virt. eigenvalues --    4.24565   4.24995   4.25664   4.25760   4.27905
 Alpha virt. eigenvalues --    4.28662   4.30196   4.30898   4.31716   4.32166
 Alpha virt. eigenvalues --    4.32910   4.34341   4.36609   4.38220   4.41905
 Alpha virt. eigenvalues --    4.47027   4.49194   4.49203   4.51154   4.51346
 Alpha virt. eigenvalues --    4.54886   4.58440   4.58669   4.58890   4.66055
 Alpha virt. eigenvalues --    4.66231   4.66471   4.69272   4.69713   4.71938
 Alpha virt. eigenvalues --    4.75569   4.76241   4.76645   4.78598   4.78752
 Alpha virt. eigenvalues --    4.78967   4.81586   4.81620   4.82551   4.86241
 Alpha virt. eigenvalues --    4.86377   4.87462   4.89710   4.93010   4.95043
 Alpha virt. eigenvalues --    4.96428   4.96922   4.97298   5.00498   5.02335
 Alpha virt. eigenvalues --    5.02578   5.04965   5.10452   5.12411   5.14258
 Alpha virt. eigenvalues --    5.17366   5.17490   5.18986   5.23070   5.23184
 Alpha virt. eigenvalues --    5.23596   5.26897   5.29203   5.31552   5.33512
 Alpha virt. eigenvalues --    5.35786   5.38123   5.38742   5.42379   5.43791
 Alpha virt. eigenvalues --    5.48340   5.49814   5.54188   5.57100   5.62974
 Alpha virt. eigenvalues --    5.73213   5.74550   5.77361   5.81792   5.83567
 Alpha virt. eigenvalues --    5.87635   5.90064   5.94351   5.98377   6.10420
 Alpha virt. eigenvalues --    6.93980   6.94104   6.96593   6.96784   6.98811
 Alpha virt. eigenvalues --    6.99186   7.04997   7.11400   7.17983   7.21671
 Alpha virt. eigenvalues --    7.23668   7.25854   7.33516   7.35159   8.41963
 Alpha virt. eigenvalues --    8.44945   8.54969   8.56816   8.79537   8.84337
 Alpha virt. eigenvalues --    8.87102   8.89933   8.90575   8.99830  15.87729
 Alpha virt. eigenvalues --   22.45780  22.46695  22.52410  22.68168  22.70543
 Alpha virt. eigenvalues --   22.77495  22.84273  22.85486  22.86028  22.90632
 Alpha virt. eigenvalues --   22.99531  23.13834  23.25285  23.37428  23.66910
 Alpha virt. eigenvalues --   32.22792  33.01899  33.07167  57.21526  57.45300
          Condensed to atoms (all electrons):
               1          2          3          4          5          6
     1  C    5.407301  -0.049709   0.203107   0.513347  -0.110130  -0.176874
     2  C   -0.049709   5.407218   0.203382   0.019348   0.002973  -0.003534
     3  C    0.203107   0.203382   5.687660  -0.103253   0.010680   0.004506
     4  C    0.513347   0.019348  -0.103253   5.202576   0.490623  -0.103025
     5  C   -0.110130   0.002973   0.010680   0.490623   5.057947   0.593158
     6  C   -0.176874  -0.003534   0.004506  -0.103025   0.593158   5.080960
     7  H    0.005607   0.000008  -0.000206  -0.028747   0.418717  -0.028629
     8  C   -0.003529  -0.176889   0.004462  -0.000062   0.000089  -0.000481
     9  C    0.019379   0.513288  -0.103267   0.000669  -0.000000  -0.000062
    10  C    0.002976  -0.110115   0.010707   0.000000  -0.000015   0.000089
    11  H    0.000008   0.005609  -0.000204  -0.000001   0.000000  -0.000000
    12  N    0.365870  -0.029863  -0.026256  -0.126928  -0.102984   0.406314
    13  N   -0.029900   0.365791  -0.026161  -0.000570  -0.000488  -0.000089
    14  B   -0.075968  -0.075970   0.018918   0.001127  -0.006474  -0.020989
    15  F   -0.007934  -0.007947   0.004473   0.000223  -0.000269  -0.003773
    16  F   -0.008374  -0.008361   0.003408   0.000255  -0.000073  -0.002490
    17  C   -0.173040  -0.172851   0.345191  -0.010045  -0.002313  -0.001111
    18  C    0.010786   0.010570  -0.101153  -0.002414  -0.000091  -0.000066
    19  C    0.007750   0.008050  -0.096249  -0.003216   0.000011  -0.000105
    20  C    0.000427   0.000309  -0.009950  -0.001158  -0.000106   0.000026
    21  H    0.003201   0.003192  -0.000112   0.001068  -0.000041  -0.000004
    22  C    0.000576   0.000692  -0.010010  -0.000784  -0.000122   0.000031
    23  H    0.002904   0.002940   0.000720   0.000892  -0.000029  -0.000006
    24  C    0.000470   0.000473   0.003928  -0.000705  -0.000013   0.000001
    25  H   -0.000037  -0.000037  -0.000198   0.000016  -0.000001   0.000000
    26  H   -0.000039  -0.000040  -0.000209   0.000018  -0.000001   0.000000
    27  H   -0.001316  -0.033859  -0.005509  -0.000031   0.000002  -0.000002
    28  H    0.000296   0.010527  -0.001032   0.000001   0.000002  -0.000014
    29  H   -0.033834  -0.001315  -0.005510   0.407397  -0.017438   0.003616
    30  H    0.010527   0.000296  -0.001032   0.004182  -0.021347   0.411625
    31  N   -0.000014  -0.000014  -0.000061   0.000018   0.000000  -0.000000
    32  H   -0.000000  -0.000000   0.000002  -0.000000  -0.000000   0.000000
    33  H   -0.000000  -0.000000   0.000002   0.000000  -0.000000   0.000000
               7          8          9         10         11         12
     1  C    0.005607  -0.003529   0.019379   0.002976   0.000008   0.365870
     2  C    0.000008  -0.176889   0.513288  -0.110115   0.005609  -0.029863
     3  C   -0.000206   0.004462  -0.103267   0.010707  -0.000204  -0.026256
     4  C   -0.028747  -0.000062   0.000669   0.000000  -0.000001  -0.126928
     5  C    0.418717   0.000089  -0.000000  -0.000015   0.000000  -0.102984
     6  C   -0.028629  -0.000481  -0.000062   0.000089  -0.000000   0.406314
     7  H    0.451353  -0.000000  -0.000001   0.000000  -0.000000   0.003837
     8  C   -0.000000   5.080975  -0.102964   0.593126  -0.028630  -0.000089
     9  C   -0.000001  -0.102964   5.202780   0.490555  -0.028753  -0.000568
    10  C    0.000000   0.593126   0.490555   5.057985   0.418725  -0.000488
    11  H   -0.000000  -0.028630  -0.028753   0.418725   0.451353   0.000008
    12  N    0.003837  -0.000089  -0.000568  -0.000488   0.000008   6.448311
    13  N    0.000008   0.406320  -0.126937  -0.102978   0.003837  -0.038033
    14  B   -0.000030  -0.020980   0.001128  -0.006475  -0.000030   0.358578
    15  F    0.000006  -0.003780   0.000218  -0.000269   0.000006  -0.045922
    16  F    0.000005  -0.002482   0.000261  -0.000073   0.000005  -0.043992
    17  C    0.000056  -0.001108  -0.010155  -0.002323   0.000056   0.011747
    18  C   -0.000006  -0.000056  -0.002336  -0.000115  -0.000007  -0.000285
    19  C   -0.000006  -0.000115  -0.003293   0.000028  -0.000006  -0.000163
    20  C    0.000002   0.000026  -0.001099  -0.000103   0.000002   0.000042
    21  H   -0.000000  -0.000003   0.001041  -0.000042  -0.000000  -0.000045
    22  C    0.000001   0.000032  -0.000853  -0.000124   0.000001   0.000037
    23  H   -0.000000  -0.000006   0.000919  -0.000029  -0.000000  -0.000050
    24  C   -0.000001   0.000001  -0.000708  -0.000013  -0.000001  -0.000006
    25  H    0.000000   0.000000   0.000017  -0.000001   0.000000   0.000000
    26  H    0.000000   0.000000   0.000017  -0.000001   0.000000   0.000000
    27  H   -0.000000   0.003617   0.407412  -0.017431  -0.001160   0.000037
    28  H   -0.000000   0.411630   0.004184  -0.021353  -0.000618  -0.000060
    29  H   -0.001159  -0.000002  -0.000031   0.000002  -0.000000   0.004260
    30  H   -0.000618  -0.000014   0.000001   0.000002  -0.000000  -0.033559
    31  N    0.000000  -0.000000   0.000018   0.000000   0.000000  -0.000000
    32  H   -0.000000   0.000000   0.000000  -0.000000  -0.000000  -0.000000
    33  H   -0.000000   0.000000   0.000000  -0.000000  -0.000000  -0.000000
              13         14         15         16         17         18
     1  C   -0.029900  -0.075968  -0.007934  -0.008374  -0.173040   0.010786
     2  C    0.365791  -0.075970  -0.007947  -0.008361  -0.172851   0.010570
     3  C   -0.026161   0.018918   0.004473   0.003408   0.345191  -0.101153
     4  C   -0.000570   0.001127   0.000223   0.000255  -0.010045  -0.002414
     5  C   -0.000488  -0.006474  -0.000269  -0.000073  -0.002313  -0.000091
     6  C   -0.000089  -0.020989  -0.003773  -0.002490  -0.001111  -0.000066
     7  H    0.000008  -0.000030   0.000006   0.000005   0.000056  -0.000006
     8  C    0.406320  -0.020980  -0.003780  -0.002482  -0.001108  -0.000056
     9  C   -0.126937   0.001128   0.000218   0.000261  -0.010155  -0.002336
    10  C   -0.102978  -0.006475  -0.000269  -0.000073  -0.002323  -0.000115
    11  H    0.003837  -0.000030   0.000006   0.000005   0.000056  -0.000007
    12  N   -0.038033   0.358578  -0.045922  -0.043992   0.011747  -0.000285
    13  N    6.448356   0.358576  -0.045896  -0.044017   0.011761  -0.000290
    14  B    0.358576   3.312796   0.367703   0.363131   0.014018  -0.000058
    15  F   -0.045896   0.367703   9.171452  -0.037535   0.000173  -0.000002
    16  F   -0.044017   0.363131  -0.037535   9.171099   0.000082   0.000002
    17  C    0.011761   0.014018   0.000173   0.000082   5.533396   0.327387
    18  C   -0.000290  -0.000058  -0.000002   0.000002   0.327387   5.191808
    19  C   -0.000160  -0.000231   0.000002  -0.000002   0.335803  -0.128271
    20  C    0.000042   0.000031   0.000000   0.000000  -0.008275   0.455959
    21  H   -0.000044  -0.000047  -0.000000  -0.000002  -0.042353   0.418773
    22  C    0.000038   0.000037   0.000000   0.000000  -0.011865  -0.003532
    23  H   -0.000052  -0.000045  -0.000002  -0.000000  -0.041873   0.007132
    24  C   -0.000006   0.000004   0.000000   0.000000  -0.028140  -0.023978
    25  H    0.000000   0.000001   0.000000  -0.000000   0.003103  -0.009940
    26  H    0.000000   0.000001  -0.000000   0.000000   0.003174  -0.000847
    27  H    0.004259   0.000524   0.000006   0.000007   0.010648  -0.002445
    28  H   -0.033560  -0.002975  -0.000240   0.000516  -0.000037   0.000002
    29  H    0.000037   0.000523   0.000006   0.000007   0.010647  -0.002479
    30  H   -0.000060  -0.002976  -0.000245   0.000522  -0.000037   0.000002
    31  N   -0.000000   0.000000   0.000000   0.000000   0.002217  -0.002599
    32  H   -0.000000   0.000000   0.000000   0.000000  -0.000056  -0.000394
    33  H   -0.000000   0.000000   0.000000   0.000000  -0.000058   0.001575
              19         20         21         22         23         24
     1  C    0.007750   0.000427   0.003201   0.000576   0.002904   0.000470
     2  C    0.008050   0.000309   0.003192   0.000692   0.002940   0.000473
     3  C   -0.096249  -0.009950  -0.000112  -0.010010   0.000720   0.003928
     4  C   -0.003216  -0.001158   0.001068  -0.000784   0.000892  -0.000705
     5  C    0.000011  -0.000106  -0.000041  -0.000122  -0.000029  -0.000013
     6  C   -0.000105   0.000026  -0.000004   0.000031  -0.000006   0.000001
     7  H   -0.000006   0.000002  -0.000000   0.000001  -0.000000  -0.000001
     8  C   -0.000115   0.000026  -0.000003   0.000032  -0.000006   0.000001
     9  C   -0.003293  -0.001099   0.001041  -0.000853   0.000919  -0.000708
    10  C    0.000028  -0.000103  -0.000042  -0.000124  -0.000029  -0.000013
    11  H   -0.000006   0.000002  -0.000000   0.000001  -0.000000  -0.000001
    12  N   -0.000163   0.000042  -0.000045   0.000037  -0.000050  -0.000006
    13  N   -0.000160   0.000042  -0.000044   0.000038  -0.000052  -0.000006
    14  B   -0.000231   0.000031  -0.000047   0.000037  -0.000045   0.000004
    15  F    0.000002   0.000000  -0.000000   0.000000  -0.000002   0.000000
    16  F   -0.000002   0.000000  -0.000002   0.000000  -0.000000   0.000000
    17  C    0.335803  -0.008275  -0.042353  -0.011865  -0.041873  -0.028140
    18  C   -0.128271   0.455959   0.418773  -0.003532   0.007132  -0.023978
    19  C    5.179437  -0.003401   0.007048   0.461172   0.418224  -0.025965
    20  C   -0.003401   5.056085  -0.034849  -0.026076  -0.001961   0.406129
    21  H    0.007048  -0.034849   0.429387  -0.001934  -0.000088   0.005390
    22  C    0.461172  -0.026076  -0.001934   5.053077  -0.034718   0.407614
    23  H    0.418224  -0.001961  -0.000088  -0.034718   0.429676   0.005338
    24  C   -0.025965   0.406129   0.005390   0.407614   0.005338   4.617128
    25  H   -0.000785   0.397358  -0.003726   0.003003   0.000023  -0.030519
    26  H   -0.009826   0.003056   0.000022   0.397285  -0.003731  -0.030616
    27  H   -0.002488   0.000928   0.000102   0.000976   0.000087  -0.000155
    28  H    0.000002  -0.000000  -0.000000  -0.000000  -0.000000   0.000000
    29  H   -0.002442   0.000934   0.000107   0.000964   0.000083  -0.000155
    30  H    0.000002  -0.000000  -0.000000  -0.000000  -0.000000   0.000000
    31  N   -0.002662  -0.042574  -0.000146  -0.042613  -0.000146   0.411596
    32  H    0.001573   0.004484   0.000010  -0.006631  -0.000025  -0.028508
    33  H   -0.000391  -0.006644  -0.000025   0.004484   0.000010  -0.028492
              25         26         27         28         29         30
     1  C   -0.000037  -0.000039  -0.001316   0.000296  -0.033834   0.010527
     2  C   -0.000037  -0.000040  -0.033859   0.010527  -0.001315   0.000296
     3  C   -0.000198  -0.000209  -0.005509  -0.001032  -0.005510  -0.001032
     4  C    0.000016   0.000018  -0.000031   0.000001   0.407397   0.004182
     5  C   -0.000001  -0.000001   0.000002   0.000002  -0.017438  -0.021347
     6  C    0.000000   0.000000  -0.000002  -0.000014   0.003616   0.411625
     7  H    0.000000   0.000000  -0.000000  -0.000000  -0.001159  -0.000618
     8  C    0.000000   0.000000   0.003617   0.411630  -0.000002  -0.000014
     9  C    0.000017   0.000017   0.407412   0.004184  -0.000031   0.000001
    10  C   -0.000001  -0.000001  -0.017431  -0.021353   0.000002   0.000002
    11  H    0.000000   0.000000  -0.001160  -0.000618  -0.000000  -0.000000
    12  N    0.000000   0.000000   0.000037  -0.000060   0.004260  -0.033559
    13  N    0.000000   0.000000   0.004259  -0.033560   0.000037  -0.000060
    14  B    0.000001   0.000001   0.000524  -0.002975   0.000523  -0.002976
    15  F    0.000000  -0.000000   0.000006  -0.000240   0.000006  -0.000245
    16  F   -0.000000   0.000000   0.000007   0.000516   0.000007   0.000522
    17  C    0.003103   0.003174   0.010648  -0.000037   0.010647  -0.000037
    18  C   -0.009940  -0.000847  -0.002445   0.000002  -0.002479   0.000002
    19  C   -0.000785  -0.009826  -0.002488   0.000002  -0.002442   0.000002
    20  C    0.397358   0.003056   0.000928  -0.000000   0.000934  -0.000000
    21  H   -0.003726   0.000022   0.000102  -0.000000   0.000107  -0.000000
    22  C    0.003003   0.397285   0.000976  -0.000000   0.000964  -0.000000
    23  H    0.000023  -0.003731   0.000087  -0.000000   0.000083  -0.000000
    24  C   -0.030519  -0.030616  -0.000155   0.000000  -0.000155   0.000000
    25  H    0.420017  -0.000168   0.000006  -0.000000   0.000006  -0.000000
    26  H   -0.000168   0.420085   0.000007  -0.000000   0.000007  -0.000000
    27  H    0.000006   0.000007   0.438594  -0.000109  -0.000001  -0.000000
    28  H   -0.000000  -0.000000  -0.000109   0.433932  -0.000000  -0.000001
    29  H    0.000006   0.000007  -0.000001  -0.000000   0.438599  -0.000109
    30  H   -0.000000  -0.000000  -0.000000  -0.000001  -0.000109   0.433928
    31  N    0.002411   0.002406  -0.000018  -0.000000  -0.000018  -0.000000
    32  H   -0.000156   0.001932  -0.000000  -0.000000  -0.000000  -0.000000
    33  H    0.001925  -0.000156  -0.000000  -0.000000  -0.000000  -0.000000
              31         32         33
     1  C   -0.000014  -0.000000  -0.000000
     2  C   -0.000014  -0.000000  -0.000000
     3  C   -0.000061   0.000002   0.000002
     4  C    0.000018  -0.000000   0.000000
     5  C    0.000000  -0.000000  -0.000000
     6  C   -0.000000   0.000000   0.000000
     7  H    0.000000  -0.000000  -0.000000
     8  C   -0.000000   0.000000   0.000000
     9  C    0.000018   0.000000   0.000000
    10  C    0.000000  -0.000000  -0.000000
    11  H    0.000000  -0.000000  -0.000000
    12  N   -0.000000  -0.000000  -0.000000
    13  N   -0.000000  -0.000000  -0.000000
    14  B    0.000000   0.000000   0.000000
    15  F    0.000000   0.000000   0.000000
    16  F    0.000000   0.000000   0.000000
    17  C    0.002217  -0.000056  -0.000058
    18  C   -0.002599  -0.000394   0.001575
    19  C   -0.002662   0.001573  -0.000391
    20  C   -0.042574   0.004484  -0.006644
    21  H   -0.000146   0.000010  -0.000025
    22  C   -0.042613  -0.006631   0.004484
    23  H   -0.000146  -0.000025   0.000010
    24  C    0.411596  -0.028508  -0.028492
    25  H    0.002411  -0.000156   0.001925
    26  H    0.002406   0.001932  -0.000156
    27  H   -0.000018  -0.000000  -0.000000
    28  H   -0.000000  -0.000000  -0.000000
    29  H   -0.000018  -0.000000  -0.000000
    30  H   -0.000000  -0.000000  -0.000000
    31  N    6.295523   0.369514   0.369516
    32  H    0.369514   0.333806  -0.016665
    33  H    0.369516  -0.016665   0.333838
 Mulliken charges:
               1
     1  C    0.116168
     2  C    0.115843
     3  C   -0.010773
     4  C   -0.260819
     5  C   -0.312268
     6  C   -0.159070
     7  H    0.179802
     8  C   -0.159086
     9  C   -0.260860
    10  C   -0.312249
    11  H    0.179801
    12  N   -0.149750
    13  N   -0.149785
    14  B    0.416154
    15  F   -0.390457
    16  F   -0.391897
    17  C   -0.103820
    18  C   -0.142631
    19  C   -0.139325
    20  C   -0.189644
    21  H    0.214122
    22  C   -0.190757
    23  H    0.213816
    24  C    0.339910
    25  H    0.217680
    26  H    0.217623
    27  H    0.197312
    28  H    0.198907
    29  H    0.197299
    30  H    0.198912
    31  N   -0.362354
    32  H    0.341113
    33  H    0.341083
 Sum of Mulliken charges =  -0.00000
 Mulliken charges with hydrogens summed into heavy atoms:
               1
     1  C    0.116168
     2  C    0.115843
     3  C   -0.010773
     4  C   -0.063521
     5  C   -0.132466
     6  C    0.039842
     8  C    0.039822
     9  C   -0.063547
    10  C   -0.132448
    12  N   -0.149750
    13  N   -0.149785
    14  B    0.416154
    15  F   -0.390457
    16  F   -0.391897
    17  C   -0.103820
    18  C    0.071491
    19  C    0.074491
    20  C    0.028036
    22  C    0.026866
    24  C    0.339910
    31  N    0.319843
 Electronic spatial extent (au):  <R**2>=           6128.6386
 Charge=              0.0000 electrons
 Dipole moment (field-independent basis, Debye):
    X=            -30.2821    Y=              0.0031    Z=              0.0918  Tot=             30.2822
 Quadrupole moment (field-independent basis, Debye-Ang):
   XX=            -42.0287   YY=           -125.9371   ZZ=           -118.0735
   XY=              0.0073   XZ=              0.7691   YZ=              0.0859
 Traceless Quadrupole moment (field-independent basis, Debye-Ang):
   XX=             53.3177   YY=            -30.5907   ZZ=            -22.7270
   XY=              0.0073   XZ=              0.7691   YZ=              0.0859
 Octapole moment (field-independent basis, Debye-Ang**2):
  XXX=           -740.0131  YYY=             -0.0269  ZZZ=             -0.9563  XYY=             16.9946
  XXY=              0.0189  XXZ=             -0.5280  XZZ=            -70.9874  YZZ=              0.0017
  YYZ=              0.3073  XYZ=             -0.3504
 Hexadecapole moment (field-independent basis, Debye-Ang**3):
 XXXX=          -1959.6234 YYYY=          -2085.3037 ZZZZ=           -429.5123 XXXY=              0.2456
 XXXZ=             10.8289 YYYX=             -0.0744 YYYZ=             -0.1382 ZZZX=              2.5855
 ZZZY=              0.6866 XXYY=          -1236.6806 XXZZ=           -835.2704 YYZZ=           -515.0907
 XXYZ=              1.4336 YYXZ=              0.0465 ZZXY=             -0.0142
 N-N= 1.586040035560D+03 E-N=-5.435638729202D+03  KE= 9.628384137642D+02
 Unable to Open any file for archive entry.
 1\1\GINC-X1003C1S3B1N0\SP\RM062X TD-FC\def2TZVP\C15H12B1F2N3\1008721\0
 8-Oct-2025\0\\# m062x/def2tzvp geom=check guess=read TD=(Read, NStates
 =3, Root=1) SCRF=(SMD, solvent=ethanol, CorrectedLR, NonEq=Save)\\BDP-
 NH2_ethanol_m062x_m062x_m062x\\0,1\C,0,0.5997381823,-1.2413662214,0.00
 71832315\C,0,0.6235046174,1.2244652397,0.0039217447\C,0,-0.1066000491,
 -0.001527433,0.0063794336\C,0,0.1311543809,-2.5648025671,-0.0099231282
 \C,0,1.2745339692,-3.3992040941,-0.0079355112\C,0,2.3830551785,-2.5654
 103654,0.0103778121\H,0,1.2941354412,-4.4866955676,-0.0200027114\C,0,2
 .4319992208,2.5139086784,0.004773311\C,0,0.1805035242,2.5566510561,-0.
 0156791728\C,0,1.3397505841,3.3688695433,-0.0152008048\H,0,1.380300144
 1,4.4557593398,-0.0291287199\N,0,1.9776023618,-1.2632896841,0.01952075
 41\N,0,2.0015338771,1.2198586892,0.0163127047\B,0,2.9037630603,-0.0304
 668683,0.0669410924\F,0,3.6667362064,-0.0362827389,1.2449114044\F,0,3.
 7907175107,-0.0404350025,-1.0191685698\C,0,-1.5628750386,0.0126025155,
 -0.0009494158\C,0,-2.2876802938,0.0135663072,-1.2370357876\C,0,-2.2983
 784917,0.0269537334,1.228736884\C,0,-3.6497045329,0.026990613,-1.25643
 64972\H,0,-1.7238779671,0.0028084454,-2.1708261226\C,0,-3.6603799265,0
 .0416467182,1.2360022852\H,0,-1.7426861714,0.0263504262,2.167415659\C,
 0,-4.3777943292,0.0417203673,-0.0133271024\H,0,-4.2107255008,0.0271595
 298,-2.1915964258\H,0,-4.2300174668,0.0533351881,2.1658897704\H,0,-0.8
 595186521,2.8769992916,-0.030920931\H,0,3.4958846414,2.7450503622,0.01
 21850492\H,0,-0.9148411575,-2.8650843026,-0.0248681455\H,0,3.442293296
 5,-2.8169907128,0.0178616834\N,0,-5.6903938736,0.0551965245,-0.0184630
 11\H,0,-6.21702384,0.0657466968,0.8532468418\H,0,-6.210564906,0.055395
 292,-0.8940996043\\Version=ES64L-G16RevC.01\State=1-A\HF=-967.8111051\
 RMSD=2.052e-09\Dipole=-11.9125161,0.1185037,-0.1421998\Quadrupole=39.6
 397004,-22.7369645,-16.902736,-0.6332492,-0.0677238,0.0661455\PG=C01 [
 X(C15H12B1F2N3)]\\@
 The archive entry for this job was punched.


 Luck is a matter of preparation meeting opportunity.
                                    -- Oprah Winfrey
 Job cpu time:       1 days 12 hours 33 minutes 58.0 seconds.
 Elapsed time:       0 days  1 hours  9 minutes 11.6 seconds.
 File lengths (MBytes):  RWF=   1507 Int=      0 D2E=      0 Chk=     91 Scr=      1
 Normal termination of Gaussian 16 at Wed Oct  8 02:35:08 2025.
