 Entering Gaussian System, Link 0=g16
 Initial command:
 /home/users/sutd/1008721/g16/l1.exe "/home/users/sutd/1008721/scratch/g16/scratch/Gau-3372994.inp" -scrdir="/home/users/sutd/1008721/scratch/g16/scratch/"
 Entering Link 1 = /home/users/sutd/1008721/g16/l1.exe PID=   3372995.
  
 Copyright (c) 1988-2019, Gaussian, Inc.  All Rights Reserved.
  
 This is part of the Gaussian(R) 16 program.  It is based on
 the Gaussian(R) 09 system (copyright 2009, Gaussian, Inc.),
 the Gaussian(R) 03 system (copyright 2003, Gaussian, Inc.),
 the Gaussian(R) 98 system (copyright 1998, Gaussian, Inc.),
 the Gaussian(R) 94 system (copyright 1995, Gaussian, Inc.),
 the Gaussian 92(TM) system (copyright 1992, Gaussian, Inc.),
 the Gaussian 90(TM) system (copyright 1990, Gaussian, Inc.),
 the Gaussian 88(TM) system (copyright 1988, Gaussian, Inc.),
 the Gaussian 86(TM) system (copyright 1986, Carnegie Mellon
 University), and the Gaussian 82(TM) system (copyright 1983,
 Carnegie Mellon University). Gaussian is a federally registered
 trademark of Gaussian, Inc.
  
 This software contains proprietary and confidential information,
 including trade secrets, belonging to Gaussian, Inc.
  
 This software is provided under written license and may be
 used, copied, transmitted, or stored only in accord with that
 written license.
  
 The following legend is applicable only to US Government
 contracts under FAR:
  
                    RESTRICTED RIGHTS LEGEND
  
 Use, reproduction and disclosure by the US Government is
 subject to restrictions as set forth in subparagraphs (a)
 and (c) of the Commercial Computer Software - Restricted
 Rights clause in FAR 52.227-19.
  
 Gaussian, Inc.
 340 Quinnipiac St., Bldg. 40, Wallingford CT 06492
  
  
 ---------------------------------------------------------------
 Warning -- This program may not be used in any manner that
 competes with the business of Gaussian, Inc. or will provide
 assistance to any competitor of Gaussian, Inc.  The licensee
 of this program is prohibited from giving any competitor of
 Gaussian, Inc. access to this program.  By using this program,
 the user acknowledges that Gaussian, Inc. is engaged in the
 business of creating and licensing software in the field of
 computational chemistry and represents and warrants to the
 licensee that it is not a competitor of Gaussian, Inc. and that
 it will not use this program in any manner prohibited above.
 ---------------------------------------------------------------
  

 Cite this work as:
 Gaussian 16, Revision C.01,
 M. J. Frisch, G. W. Trucks, H. B. Schlegel, G. E. Scuseria, 
 M. A. Robb, J. R. Cheeseman, G. Scalmani, V. Barone, 
 G. A. Petersson, H. Nakatsuji, X. Li, M. Caricato, A. V. Marenich, 
 J. Bloino, B. G. Janesko, R. Gomperts, B. Mennucci, H. P. Hratchian, 
 J. V. Ortiz, A. F. Izmaylov, J. L. Sonnenberg, D. Williams-Young, 
 F. Ding, F. Lipparini, F. Egidi, J. Goings, B. Peng, A. Petrone, 
 T. Henderson, D. Ranasinghe, V. G. Zakrzewski, J. Gao, N. Rega, 
 G. Zheng, W. Liang, M. Hada, M. Ehara, K. Toyota, R. Fukuda, 
 J. Hasegawa, M. Ishida, T. Nakajima, Y. Honda, O. Kitao, H. Nakai, 
 T. Vreven, K. Throssell, J. A. Montgomery, Jr., J. E. Peralta, 
 F. Ogliaro, M. J. Bearpark, J. J. Heyd, E. N. Brothers, K. N. Kudin, 
 V. N. Staroverov, T. A. Keith, R. Kobayashi, J. Normand, 
 K. Raghavachari, A. P. Rendell, J. C. Burant, S. S. Iyengar, 
 J. Tomasi, M. Cossi, J. M. Millam, M. Klene, C. Adamo, R. Cammi, 
 J. W. Ochterski, R. L. Martin, K. Morokuma, O. Farkas, 
 J. B. Foresman, and D. J. Fox, Gaussian, Inc., Wallingford CT, 2019.
 
 ******************************************
 Gaussian 16:  ES64L-G16RevC.01  3-Jul-2019
                 5-Feb-2026 
 ******************************************
 %nprocshared=32
 Will use up to   32 processors via shared memory.
 %mem=64GB
 %oldchk=01BDP-NH2_ethanol_m062x_m062x_m062x.chk
 %chk=02BDP-NH2_ethanol_m062x_m062x_m062x.chk
 Copying data from "01BDP-NH2_ethanol_m062x_m062x_m062x.chk" to current chk file "02BDP-NH2_ethanol_m062x_m062x_m062x.chk"
 IOpt=  2 FromEx=T IUOpen= 4 IOptOp= 5 NList=   0 IFRang= 0 IUIn= 4 IUOut= 2.
 ----------------------------------------------------------------------
 # td=(nstates=6) m062x/def2tzvp geom=check guess=read scrf=(SMD, solve
 nt=ethanol)
 ----------------------------------------------------------------------
 1/29=2,38=1,172=1/1;
 2/12=2,40=1/2;
 3/5=44,7=101,11=9,14=-4,25=1,30=1,70=32201,72=4,74=-55,116=-2/1,2,3,8;
 4/5=1/1;
 5/5=2,38=6,53=4/2;
 8/6=1,10=1,108=6/1;
 9/41=6,42=1,70=2/14;
 6/7=2,8=2,9=2,10=2/1;
 99/5=1,9=1/99;
 ---------------------------------
 BDP-NH2_ethanol_m062x_m062x_m062x
 ---------------------------------
 Structure from the checkpoint file:  "02BDP-NH2_ethanol_m062x_m062x_m062x.chk"
 Charge =  0 Multiplicity = 1
 Redundant internal coordinates found in file.  (old form).
 C,0,0.6243845774,-1.2171156418,-0.0666301741
 C,0,0.6239374979,1.2185309487,0.0343965605
 C,0,-0.0956929235,0.0003598123,-0.0106120108
 C,0,0.1771546202,-2.5493256068,-0.2397382957
 C,0,1.3088545243,-3.3589169482,-0.2920673412
 C,0,2.4184593636,-2.5061846929,-0.1705831734
 H,0,1.3448633416,-4.4378331114,-0.4197195672
 C,0,2.4183632157,2.5097178787,0.1008585368
 C,0,0.1776696764,2.5535933356,0.1870065421
 C,0,1.3094652733,3.3643099276,0.2148591214
 H,0,1.3458474965,4.4456417765,0.3199507726
 N,0,2.010239251,-1.2377317345,-0.0385481672
 N,0,2.0097522153,1.2388483664,-0.0042305606
 B,0,2.9439815186,0.0000805273,0.0072077201
 F,0,3.7091514325,-0.0071101818,1.168475352
 F,0,3.7820256985,0.0075148543,-1.1016166387
 C,0,-1.5567223194,-0.001726551,-0.0031615748
 C,0,-2.2942522574,0.8912831313,-0.8091818472
 C,0,-2.2809421553,-0.8991624768,0.8100781326
 C,0,-3.6764651359,0.8832957885,-0.8151520751
 H,0,-1.7664355524,1.5710644095,-1.4803114159
 C,0,-3.6630212122,-0.8970419231,0.8325954848
 H,0,-1.7419088569,-1.5795519407,1.4716506494
 C,0,-4.3991844832,-0.0073318576,0.0141807221
 H,0,-4.2251292834,1.5622324208,-1.4708708812
 H,0,-4.2010718451,-1.5800388142,1.4928859096
 H,0,-0.8576181502,2.8706064301,0.2857057448
 H,0,3.4797473926,2.7567302739,0.1066680519
 H,0,-0.8589670874,-2.8638136852,-0.3384444306
 H,0,3.4797782219,-2.7527976853,-0.187534765
 N,0,-5.7510711092,0.0034682444,0.0368046062
 H,0,-6.2582584325,-0.7108043368,0.5440462198
 H,0,-6.2670965134,0.5747120625,-0.620486208
 Recover connectivity data from disk.
                           ----------------------------
                           !    Current Parameters    !
                           ! (Angstroms and Degrees)  !
 --------------------------                            --------------------------
 ! Name  Definition              Value                                          !
 --------------------------------------------------------------------------------
 ! R1    R(1,3)                  1.4156                                         !
 ! R2    R(1,4)                  1.4159                                         !
 ! R3    R(1,12)                 1.3863                                         !
 ! R4    R(2,3)                  1.4156                                         !
 ! R5    R(2,9)                  1.4159                                         !
 ! R6    R(2,13)                 1.3865                                         !
 ! R7    R(3,17)                 1.461                                          !
 ! R8    R(4,5)                  1.3925                                         !
 ! R9    R(4,29)                 1.0873                                         !
 ! R10   R(5,6)                  1.4047                                         !
 ! R11   R(5,7)                  1.087                                          !
 ! R12   R(6,12)                 1.339                                          !
 ! R13   R(6,30)                 1.0897                                         !
 ! R14   R(8,10)                 1.4046                                         !
 ! R15   R(8,13)                 1.3391                                         !
 ! R16   R(8,28)                 1.0898                                         !
 ! R17   R(9,10)                 1.3925                                         !
 ! R18   R(9,27)                 1.0872                                         !
 ! R19   R(10,11)                1.087                                          !
 ! R20   R(12,14)                1.5512                                         !
 ! R21   R(13,14)                1.5516                                         !
 ! R22   R(14,15)                1.3907                                         !
 ! R23   R(14,16)                1.3899                                         !
 ! R24   R(17,18)                1.4111                                         !
 ! R25   R(17,19)                1.4111                                         !
 ! R26   R(18,20)                1.3822                                         !
 ! R27   R(18,21)                1.0914                                         !
 ! R28   R(19,22)                1.3823                                         !
 ! R29   R(19,23)                1.0914                                         !
 ! R30   R(20,24)                1.4154                                         !
 ! R31   R(20,25)                1.0918                                         !
 ! R32   R(22,24)                1.4154                                         !
 ! R33   R(22,26)                1.0918                                         !
 ! R34   R(24,31)                1.3521                                         !
 ! R35   R(31,32)                1.0123                                         !
 ! R36   R(31,33)                1.0122                                         !
 ! A1    A(3,1,4)              130.7969                                         !
 ! A2    A(3,1,12)             121.3661                                         !
 ! A3    A(4,1,12)             107.7129                                         !
 ! A4    A(3,2,9)              130.89                                           !
 ! A5    A(3,2,13)             121.3216                                         !
 ! A6    A(9,2,13)             107.7105                                         !
 ! A7    A(1,3,2)              118.8671                                         !
 ! A8    A(1,3,17)             120.507                                          !
 ! A9    A(2,3,17)             120.6257                                         !
 ! A10   A(1,4,5)              107.1533                                         !
 ! A11   A(1,4,29)             125.7496                                         !
 ! A12   A(5,4,29)             127.0788                                         !
 ! A13   A(4,5,6)              106.6069                                         !
 ! A14   A(4,5,7)              127.4743                                         !
 ! A15   A(6,5,7)              125.9102                                         !
 ! A16   A(5,6,12)             110.0457                                         !
 ! A17   A(5,6,30)             129.0953                                         !
 ! A18   A(12,6,30)            120.8519                                         !
 ! A19   A(10,8,13)            110.0532                                         !
 ! A20   A(10,8,28)            129.0916                                         !
 ! A21   A(13,8,28)            120.8464                                         !
 ! A22   A(2,9,10)             107.1542                                         !
 ! A23   A(2,9,27)             125.7913                                         !
 ! A24   A(10,9,27)            127.0411                                         !
 ! A25   A(8,10,9)             106.6078                                         !
 ! A26   A(8,10,11)            125.9192                                         !
 ! A27   A(9,10,11)            127.4662                                         !
 ! A28   A(1,12,6)             108.4727                                         !
 ! A29   A(1,12,14)            126.1923                                         !
 ! A30   A(6,12,14)            125.1213                                         !
 ! A31   A(2,13,8)             108.4643                                         !
 ! A32   A(2,13,14)            126.1502                                         !
 ! A33   A(8,13,14)            124.9883                                         !
 ! A34   A(12,14,13)           105.9283                                         !
 ! A35   A(12,14,15)           110.5915                                         !
 ! A36   A(12,14,16)           110.1015                                         !
 ! A37   A(13,14,15)           109.9721                                         !
 ! A38   A(13,14,16)           110.664                                          !
 ! A39   A(15,14,16)           109.538                                          !
 ! A40   A(3,17,18)            121.2555                                         !
 ! A41   A(3,17,19)            121.1356                                         !
 ! A42   A(18,17,19)           117.6089                                         !
 ! A43   A(17,18,20)           121.4313                                         !
 ! A44   A(17,18,21)           119.5164                                         !
 ! A45   A(20,18,21)           118.9833                                         !
 ! A46   A(17,19,22)           121.4376                                         !
 ! A47   A(17,19,23)           119.4942                                         !
 ! A48   A(22,19,23)           119.0063                                         !
 ! A49   A(18,20,24)           120.7776                                         !
 ! A50   A(18,20,25)           120.1016                                         !
 ! A51   A(24,20,25)           119.1185                                         !
 ! A52   A(19,22,24)           120.7698                                         !
 ! A53   A(19,22,26)           120.1092                                         !
 ! A54   A(24,22,26)           119.1188                                         !
 ! A55   A(20,24,22)           117.9544                                         !
 ! A56   A(20,24,31)           121.0178                                         !
 ! A57   A(22,24,31)           121.0222                                         !
 ! A58   A(24,31,32)           120.2448                                         !
 ! A59   A(24,31,33)           120.2212                                         !
 ! A60   A(32,31,33)           117.9146                                         !
 ! D1    D(4,1,3,2)           -173.509                                          !
 ! D2    D(4,1,3,17)             6.3244                                         !
 ! D3    D(12,1,3,2)             1.9136                                         !
 ! D4    D(12,1,3,17)         -178.253                                          !
 ! D5    D(3,1,4,5)            176.8326                                         !
 ! D6    D(3,1,4,29)            -1.6987                                         !
 ! D7    D(12,1,4,5)             0.9347                                         !
 ! D8    D(12,1,4,29)         -177.5966                                         !
 ! D9    D(3,1,12,6)          -177.007                                          !
 ! D10   D(3,1,12,14)           -2.1202                                         !
 ! D11   D(4,1,12,6)            -0.6432                                         !
 ! D12   D(4,1,12,14)          174.2435                                         !
 ! D13   D(9,2,3,1)           -174.9764                                         !
 ! D14   D(9,2,3,17)             5.1905                                         !
 ! D15   D(13,2,3,1)             1.3942                                         !
 ! D16   D(13,2,3,17)         -178.4389                                         !
 ! D17   D(3,2,9,10)           177.7548                                         !
 ! D18   D(3,2,9,27)            -0.9844                                         !
 ! D19   D(13,2,9,10)            1.0091                                         !
 ! D20   D(13,2,9,27)         -177.7301                                         !
 ! D21   D(3,2,13,8)          -177.8235                                         !
 ! D22   D(3,2,13,14)           -4.7967                                         !
 ! D23   D(9,2,13,8)            -0.703                                          !
 ! D24   D(9,2,13,14)          172.3238                                         !
 ! D25   D(1,3,17,18)         -135.3722                                         !
 ! D26   D(1,3,17,19)           44.5451                                         !
 ! D27   D(2,3,17,18)           44.4582                                         !
 ! D28   D(2,3,17,19)         -135.6245                                         !
 ! D29   D(1,4,5,6)             -0.8591                                         !
 ! D30   D(1,4,5,7)           -179.838                                          !
 ! D31   D(29,4,5,6)           177.6469                                         !
 ! D32   D(29,4,5,7)            -1.332                                          !
 ! D33   D(4,5,6,12)             0.484                                          !
 ! D34   D(4,5,6,30)          -178.5401                                         !
 ! D35   D(7,5,6,12)           179.4835                                         !
 ! D36   D(7,5,6,30)             0.4593                                         !
 ! D37   D(5,6,12,1)             0.1031                                         !
 ! D38   D(5,6,12,14)         -174.852                                          !
 ! D39   D(30,6,12,1)          179.2209                                         !
 ! D40   D(30,6,12,14)           4.2658                                         !
 ! D41   D(13,8,10,9)            0.5087                                         !
 ! D42   D(13,8,10,11)         179.6161                                         !
 ! D43   D(28,8,10,9)         -178.4033                                         !
 ! D44   D(28,8,10,11)           0.7041                                         !
 ! D45   D(10,8,13,2)            0.1253                                         !
 ! D46   D(10,8,13,14)        -173.0024                                         !
 ! D47   D(28,8,13,2)          179.1417                                         !
 ! D48   D(28,8,13,14)           6.014                                          !
 ! D49   D(2,9,10,8)            -0.9194                                         !
 ! D50   D(2,9,10,11)          179.9913                                         !
 ! D51   D(27,9,10,8)          177.7993                                         !
 ! D52   D(27,9,10,11)          -1.2899                                         !
 ! D53   D(1,12,14,13)          -0.7204                                         !
 ! D54   D(1,12,14,15)         118.4013                                         !
 ! D55   D(1,12,14,16)        -120.4052                                         !
 ! D56   D(6,12,14,13)         173.3476                                         !
 ! D57   D(6,12,14,15)         -67.5307                                         !
 ! D58   D(6,12,14,16)          53.6628                                         !
 ! D59   D(2,13,14,12)           4.1646                                         !
 ! D60   D(2,13,14,15)        -115.3645                                         !
 ! D61   D(2,13,14,16)         123.4799                                         !
 ! D62   D(8,13,14,12)         176.0844                                         !
 ! D63   D(8,13,14,15)          56.5553                                         !
 ! D64   D(8,13,14,16)         -64.6002                                         !
 ! D65   D(3,17,18,20)         179.3351                                         !
 ! D66   D(3,17,18,21)           2.3894                                         !
 ! D67   D(19,17,18,20)         -0.585                                          !
 ! D68   D(19,17,18,21)       -177.5307                                         !
 ! D69   D(3,17,19,22)         179.3089                                         !
 ! D70   D(3,17,19,23)           2.2011                                         !
 ! D71   D(18,17,19,22)         -0.7709                                         !
 ! D72   D(18,17,19,23)       -177.8787                                         !
 ! D73   D(17,18,20,24)          1.3801                                         !
 ! D74   D(17,18,20,25)       -178.0543                                         !
 ! D75   D(21,18,20,24)        178.3417                                         !
 ! D76   D(21,18,20,25)         -1.0926                                         !
 ! D77   D(17,19,22,24)          1.3311                                         !
 ! D78   D(17,19,22,26)       -178.1163                                         !
 ! D79   D(23,19,22,24)        178.4527                                         !
 ! D80   D(23,19,22,26)         -0.9947                                         !
 ! D81   D(18,20,24,22)         -0.8109                                         !
 ! D82   D(18,20,24,31)        178.3439                                         !
 ! D83   D(25,20,24,22)        178.6289                                         !
 ! D84   D(25,20,24,31)         -2.2162                                         !
 ! D85   D(19,22,24,20)         -0.529                                          !
 ! D86   D(19,22,24,31)       -179.6838                                         !
 ! D87   D(26,22,24,20)        178.9238                                         !
 ! D88   D(26,22,24,31)         -0.231                                          !
 ! D89   D(20,24,31,32)        172.4195                                         !
 ! D90   D(20,24,31,33)          7.2254                                         !
 ! D91   D(22,24,31,32)         -8.4516                                         !
 ! D92   D(22,24,31,33)       -173.6457                                         !
 --------------------------------------------------------------------------------
                          Input orientation:                          
 ---------------------------------------------------------------------
 Center     Atomic      Atomic             Coordinates (Angstroms)
 Number     Number       Type             X           Y           Z
 ---------------------------------------------------------------------
      1          6           0        0.624385   -1.217116   -0.066630
      2          6           0        0.623937    1.218531    0.034397
      3          6           0       -0.095693    0.000360   -0.010612
      4          6           0        0.177155   -2.549326   -0.239738
      5          6           0        1.308855   -3.358917   -0.292067
      6          6           0        2.418459   -2.506185   -0.170583
      7          1           0        1.344863   -4.437833   -0.419720
      8          6           0        2.418363    2.509718    0.100859
      9          6           0        0.177670    2.553593    0.187007
     10          6           0        1.309465    3.364310    0.214859
     11          1           0        1.345847    4.445642    0.319951
     12          7           0        2.010239   -1.237732   -0.038548
     13          7           0        2.009752    1.238848   -0.004231
     14          5           0        2.943982    0.000081    0.007208
     15          9           0        3.709151   -0.007110    1.168475
     16          9           0        3.782026    0.007515   -1.101617
     17          6           0       -1.556722   -0.001727   -0.003162
     18          6           0       -2.294252    0.891283   -0.809182
     19          6           0       -2.280942   -0.899162    0.810078
     20          6           0       -3.676465    0.883296   -0.815152
     21          1           0       -1.766436    1.571064   -1.480311
     22          6           0       -3.663021   -0.897042    0.832595
     23          1           0       -1.741909   -1.579552    1.471651
     24          6           0       -4.399184   -0.007332    0.014181
     25          1           0       -4.225129    1.562232   -1.470871
     26          1           0       -4.201072   -1.580039    1.492886
     27          1           0       -0.857618    2.870606    0.285706
     28          1           0        3.479747    2.756730    0.106668
     29          1           0       -0.858967   -2.863814   -0.338444
     30          1           0        3.479778   -2.752798   -0.187535
     31          7           0       -5.751071    0.003468    0.036805
     32          1           0       -6.258258   -0.710804    0.544046
     33          1           0       -6.267097    0.574712   -0.620486
 ---------------------------------------------------------------------
                    Distance matrix (angstroms):
                    1          2          3          4          5
     1  C    0.000000
     2  C    2.437741   0.000000
     3  C    1.415590   1.415569   0.000000
     4  C    1.415897   3.804144   2.574459   0.000000
     5  C    2.259786   4.639905   3.651946   1.392451   0.000000
     6  C    2.211608   4.139545   3.553775   2.242786   1.404683
     7  H    3.319154   5.720176   4.684029   2.227644   1.087038
     8  C    4.139529   2.211684   3.553840   5.543730   5.985505
     9  C    3.805540   1.415922   2.575419   5.120732   6.038780
    10  C    4.640909   2.259841   3.652597   6.038201   6.742311
    11  H    5.721606   3.319178   4.684852   7.113977   7.828606
    12  N    1.386292   2.821415   2.443072   2.262953   2.248475
    13  N    2.820443   1.386502   2.442702   4.214753   4.659780
    14  B    2.620601   2.620680   3.039727   3.770383   3.747809
    15  F    3.536295   3.508116   3.983358   4.573940   4.373696
    16  F    3.541414   3.567998   4.028281   4.502817   4.254975
    17  C    2.497684   2.499143   1.461050   3.090721   4.423316
    18  C    3.676298   3.055249   2.503022   4.274331   5.595890
    19  C    3.051333   3.677585   2.501597   3.141241   4.489071
    20  C    4.844515   4.396314   3.774757   5.192723   6.566841
    21  H    3.935539   2.851754   2.723694   4.721671   5.930771
    22  C    4.392369   4.846729   3.773879   4.315888   5.660852
    23  H    2.845525   3.936013   2.720892   2.748112   3.947657
    24  C    5.167819   5.170581   4.303570   5.241096   6.626358
    25  H    5.763198   5.088950   4.650166   6.148227   7.498818
    26  H    5.084175   5.765405   4.648903   4.807325   6.058857
    27  H    4.362332   2.233275   2.984401   5.542789   6.620754
    28  H    4.896384   3.244523   4.516094   6.259500   6.501762
    29  H    2.232897   4.359307   2.982206   1.087287   2.224124
    30  H    3.244412   4.896584   4.516101   3.309297   2.256373
    31  N    6.492069   6.489770   5.655578   6.460425   7.826643
    32  H    6.928207   7.165661   6.228211   6.738622   8.060570
    33  H    7.142123   6.951958   6.228005   7.171677   8.542618
                    6          7          8          9         10
     6  C    0.000000
     7  H    2.223948   0.000000
     8  C    5.023242   7.049246   0.000000
     9  C    5.545301   7.114106   2.242778   0.000000
    10  C    5.986747   7.827987   1.404627   1.392479   0.000000
    11  H    7.051171   8.914216   2.223981   2.227591   1.087036
    12  N    1.339048   3.290694   3.772185   4.217029   4.661983
    13  N    3.770940   5.730569   1.339073   2.263107   2.248553
    14  B    2.566934   4.736510   2.565799   3.768983   3.746038
    15  F    3.115179   5.267212   3.023303   4.471224   4.246687
    16  F    3.007461   5.115258   3.092983   4.597222   4.372040
    17  C    4.701320   5.317120   4.703135   3.094178   4.426372
    18  C    5.844677   6.464853   5.065200   3.141029   4.489020
    19  C    5.062469   5.213546   5.848669   4.284217   5.605578
    20  C    7.003724   7.326972   6.374265   4.318399   5.663555
    21  H    5.987712   6.849225   4.570964   2.743147   3.943412
    22  C    6.370252   6.259745   7.008901   5.203323   6.577715
    23  H    4.567739   4.612506   5.992417   4.734763   5.944088
    24  C    7.263516   7.267166   7.267875   5.247457   6.633018
    25  H    7.898103   8.254122   6.892319   4.807909   6.059778
    26  H    6.887893   6.525523   7.904478   6.161624   7.513052
    27  H    6.312746   7.665627   3.300979   1.087226   2.223739
    28  H    5.376009   7.523068   1.089764   3.309295   2.256321
    29  H    3.301151   2.709430   6.309415   5.540669   6.617988
    30  H    1.089726   2.729673   5.376229   6.261149   6.503167
    31  N    8.548836   8.383666   8.545469   6.455669   7.821645
    32  H    8.889292   8.522150   9.265632   7.225299   8.601474
    33  H    9.226766   9.116351   8.927586   6.789921   8.116893
                   11         12         13         14         15
    11  H    0.000000
    12  N    5.733295   0.000000
    13  N    3.290803   2.476818   0.000000
    14  B    4.734433   1.551176   1.551599   0.000000
    15  F    5.111966   2.420256   2.411557   1.390712   0.000000
    16  F    5.258592   2.412464   2.421031   1.389915   2.271308
    17  C    5.320564   3.775205   3.776078   4.500716   5.394644
    18  C    5.211404   4.863664   4.392403   5.375856   6.384285
    19  C    6.477713   4.387372   4.862535   5.362189   6.066748
    20  C    6.261181   6.118862   5.754744   6.729536   7.699022
    21  H    4.603308   4.922529   4.068019   5.183506   6.284008
    22  C    7.341379   5.749856   6.119041   6.718525   7.433285
    23  H    6.867577   4.059083   4.919001   5.157267   5.681421
    24  C    7.275154   6.526667   6.528995   7.343173   8.190086
    25  H    6.523563   6.983636   6.413217   7.484730   8.507749
    26  H    8.273628   6.406469   6.982966   7.466981   8.071616
    27  H    2.708721   5.020776   3.311874   4.771754   5.469545
    28  H    2.729733   4.258670   2.115928   2.809992   2.969659
    29  H    7.663082   3.311559   5.017279   4.773236   5.594575
    30  H    7.525206   2.115932   4.257677   2.811288   3.070859
    31  N    8.377310   7.860292   7.858640   8.695104   9.527676
    32  H    9.190298   8.305728   8.512447   9.245257  10.011711
    33  H    8.592173   8.493403   8.326288   9.250306  10.152065
                   16         17         18         19         20
    16  F    0.000000
    17  C    5.450589   0.000000
    18  C    6.147172   1.411058   0.000000
    19  C    6.421543   1.411115   2.414099   0.000000
    20  C    7.515194   2.436371   1.382249   2.786757   0.000000
    21  H    5.776982   2.167861   1.091379   3.407730   2.136276
    22  C    7.745200   2.436509   2.786946   1.382264   2.425872
    23  H    6.297169   2.167694   3.407683   1.091405   3.877834
    24  C    8.256962   2.842521   2.432319   2.432235   1.415392
    25  H    8.165049   3.423527   2.148556   3.878280   1.091767
    26  H    8.542928   3.423713   3.878519   2.148655   3.416178
    27  H    5.625678   2.970267   2.679630   4.063493   3.620385
    28  H    3.018196   5.743446   6.136591   6.859000   7.454588
    29  H    5.510515   2.964932   4.047516   2.683463   4.712364
    30  H    2.923393   5.741840   6.856034   6.133278   8.051515
    31  N    9.600831   4.194542   3.667902   3.668036   2.409132
    32  H   10.199583   4.786091   4.484557   3.990651   3.324790
    33  H   10.076609   4.785499   3.989902   4.484222   2.616198
                   21         22         23         24         25
    21  H    0.000000
    22  C    3.877902   0.000000
    23  H    4.317530   2.136559   0.000000
    24  C    3.414119   1.415388   3.414265   0.000000
    25  H    2.458728   3.416131   4.969469   2.167765   0.000000
    26  H    4.969588   1.091772   2.459255   2.167770   4.319526
    27  H    2.373515   4.729117   4.689600   4.571537   4.017155
    28  H    5.607740   8.055816   6.923310   8.350219   7.954909
    29  H    4.668565   3.619702   2.388589   4.562562   5.674797
    30  H    6.920247   7.450106   5.603161   8.346036   8.923678
    31  N    4.542722   2.409181   4.542920   1.352119   2.651665
    32  H    5.429680   2.617862   4.691757   2.057131   3.655161
    33  H    4.689133   3.325465   5.430950   2.056860   2.422392
                   26         27         28         29         30
    26  H    0.000000
    27  H    5.695982   0.000000
    28  H    8.928838   4.342552   0.000000
    29  H    4.021382   5.768287   7.114287   0.000000
    30  H    7.949505   7.117558   5.517377   4.342788   0.000000
    31  N    2.651446   5.676999   9.632930   5.682851   9.636177
    32  H    2.426496   6.485380  10.346200   5.879336   9.976688
    33  H    3.657561   5.945988  10.014536   6.414894  10.308314
                   31         32         33
    31  N    0.000000
    32  H    1.012284   0.000000
    33  H    1.012242   1.734580   0.000000
 Stoichiometry    C15H12BF2N3
 Framework group  C1[X(C15H12BF2N3)]
 Deg. of freedom    93
 Full point group                 C1      NOp   1
 Largest Abelian subgroup         C1      NOp   1
 Largest concise Abelian subgroup C1      NOp   1
                         Standard orientation:                         
 ---------------------------------------------------------------------
 Center     Atomic      Atomic             Coordinates (Angstroms)
 Number     Number       Type             X           Y           Z
 ---------------------------------------------------------------------
      1          6           0        0.621981   -1.216876   -0.058200
      2          6           0        0.625721    1.218785    0.042418
      3          6           0       -0.096014    0.001917   -0.004138
      4          6           0        0.172749   -2.548300   -0.232173
      5          6           0        1.303098   -3.359958   -0.281614
      6          6           0        2.413954   -2.509225   -0.157574
      7          1           0        1.337453   -4.438960   -0.408998
      8          6           0        2.422327    2.506716    0.113028
      9          6           0        0.181514    2.554683    0.193718
     10          6           0        1.314712    3.363344    0.224188
     11          1           0        1.352807    4.444626    0.329187
     12          7           0        2.007723   -1.240009   -0.026744
     13          7           0        2.011660    1.236574    0.007158
     14          5           0        2.943603   -0.003890    0.021076
     15          9           0        3.705932   -0.012274    1.184202
     16          9           0        3.784353    0.001829   -1.085708
     17          6           0       -1.557058    0.002491   -0.000240
     18          6           0       -2.290999    0.896703   -0.808202
     19          6           0       -2.284886   -0.893486    0.811385
     20          6           0       -3.673206    0.891229   -0.817532
     21          1           0       -1.760316    1.575407   -1.478159
     22          6           0       -3.667010   -0.888847    0.830541
     23          1           0       -1.748702   -1.574742    1.474381
     24          6           0       -4.399560    0.002061    0.010189
     25          1           0       -4.219037    1.571051   -1.474697
     26          1           0       -4.207907   -1.570750    1.489635
     27          1           0       -0.853432    2.873597    0.289846
     28          1           0        3.484142    2.751798    0.121378
     29          1           0       -0.863700   -2.860919   -0.333347
     30          1           0        3.474860   -2.757772   -0.171903
     31          7           0       -5.751475    0.015325    0.029523
     32          1           0       -6.261194   -0.697937    0.535649
     33          1           0       -6.264860    0.587394   -0.629117
 ---------------------------------------------------------------------
 Rotational constants (GHZ):           0.5795983           0.2151487           0.1666608
 Standard basis: def2TZVP (5D, 7F)
 There are   828 symmetry adapted cartesian basis functions of A   symmetry.
 There are   723 symmetry adapted basis functions of A   symmetry.
   723 basis functions,  1167 primitive gaussians,   828 cartesian basis functions
    73 alpha electrons       73 beta electrons
       nuclear repulsion energy      1590.1687407230 Hartrees.
 NAtoms=   33 NActive=   33 NUniq=   33 SFac= 1.00D+00 NAtFMM=   60 NAOKFM=F Big=F
 Integral buffers will be    131072 words long.
 Regular integral format.
 Two-electron integral symmetry is turned on.
 ------------------------------------------------------------------------------
 Polarizable Continuum Model (PCM)
 =================================
 Model                : PCM.
 Atomic radii         : SMD-Coulomb.
 Polarization charges : Total charges.
 Charge compensation  : None.
 Solution method      : On-the-fly selection.
 Cavity type          : VdW (van der Waals Surface) (Alpha=1.000).
 Cavity algorithm     : GePol (No added spheres)
                        Default sphere list used, NSphG=   33.
                        Lebedev-Laikov grids with approx.  5.0 points / Ang**2.
                        Smoothing algorithm: York/Karplus (Gamma=1.0000).
                        Polarization charges: spherical gaussians, with
                                              point-specific exponents (IZeta= 3).
                        Self-potential: point-specific (ISelfS= 7).
                        Self-field    : sphere-specific E.n sum rule (ISelfD= 2).
 Solvent              : Ethanol, Eps=  24.852000 Eps(inf)=   1.852593
 ------------------------------------------------------------------------------
 ------------------------------------------------------------------------------
 Atomic radii for non-electrostatic terms: SMD-CDS.
 ------------------------------------------------------------------------------
 Nuclear repulsion after PCM non-electrostatic terms =     1590.1679438521 Hartrees.
 One-electron integrals computed using PRISM.
   1 Symmetry operations used in ECPInt.
 ECPInt:  NShTT=   39060 NPrTT=  121776 LenC2=   34365 LenP2D=   76755.
 LDataN:  DoStor=T MaxTD1= 6 Len=  172
 NBasis=   723 RedAO= T EigKep=  8.06D-06  NBF=   723
 NBsUse=   723 1.00D-06 EigRej= -1.00D+00 NBFU=   723
 Initial guess from the checkpoint file:  "02BDP-NH2_ethanol_m062x_m062x_m062x.chk"
 B after Tr=     0.000000    0.000000    0.000000
         Rot=    1.000000   -0.000000    0.000000   -0.000000 Ang=   0.00 deg.
 Requested convergence on RMS density matrix=1.00D-08 within 128 cycles.
 Requested convergence on MAX density matrix=1.00D-06.
 Requested convergence on             energy=1.00D-06.
 No special actions if energy rises.
 Inv3:  Mode=1 IEnd=    19691532.
 Iteration    1 A*A^-1 deviation from unit magnitude is 6.99D-15 for   2548.
 Iteration    1 A*A^-1 deviation from orthogonality  is 2.04D-15 for   1929   1700.
 Iteration    1 A^-1*A deviation from unit magnitude is 6.77D-15 for   2548.
 Iteration    1 A^-1*A deviation from orthogonality  is 1.37D-15 for   2541   2524.
 Error on total polarization charges =  0.04884
 SCF Done:  E(RM062X) =  -967.829455394     A.U. after    1 cycles
            NFock=  1  Conv=0.10D-08     -V/T= 2.0051
 SMD-CDS (non-electrostatic) energy       (kcal/mol) =      -0.50
 (included in total energy above)
 DoSCS=F DFT=T ScalE2(SS,OS)=  1.000000  1.000000
 ExpMin= 6.06D-02 ExpMax= 3.55D+04 ExpMxC= 1.21D+03 IAcc=3 IRadAn=         5 AccDes= 0.00D+00
 HarFok:  IExCor=  205 AccDes= 0.00D+00 IRadAn=         5 IDoV=-2 UseB2=F ITyADJ=14
 ICtDFT= 12500011 ScaDFX=  1.000000  1.000000  1.000000  1.000000
 GSVD:  LWork=        -609 too small for GESVD, short by        2520 words or        2520 for optimal perf.
 Range of M.O.s used for correlation:    22   723
 NBasis=   723 NAE=    73 NBE=    73 NFC=    21 NFV=     0
 NROrb=    702 NOA=    52 NOB=    52 NVA=   650 NVB=   650

 **** Warning!!: The largest alpha MO coefficient is  0.50166188D+02

 NEqPCM:  Using non-equilibrium solvation (IEInf=1, Eps=  24.8520, EpsInf=   1.8526)
 Inv3:  Mode=1 IEnd=    19691532.
 Iteration    1 A*A^-1 deviation from unit magnitude is 5.33D-15 for   2544.
 Iteration    1 A*A^-1 deviation from orthogonality  is 2.24D-15 for   2550   1085.
 Iteration    1 A^-1*A deviation from unit magnitude is 5.33D-15 for   2544.
 Iteration    1 A^-1*A deviation from orthogonality  is 1.99D-15 for   1607   1131.
 Orbital symmetries:
       Occupied  (A) (A) (A) (A) (A) (A) (A) (A) (A) (A) (A) (A)
                 (A) (A) (A) (A) (A) (A) (A) (A) (A) (A) (A) (A)
                 (A) (A) (A) (A) (A) (A) (A) (A) (A) (A) (A) (A)
                 (A) (A) (A) (A) (A) (A) (A) (A) (A) (A) (A) (A)
                 (A) (A) (A) (A) (A) (A) (A) (A) (A) (A) (A) (A)
                 (A) (A) (A) (A) (A) (A) (A) (A) (A) (A) (A) (A)
                 (A)
       Virtual   (A) (A) (A) (A) (A) (A) (A) (A) (A) (A) (A) (A)
                 (A) (A) (A) (A) (A) (A) (A) (A) (A) (A) (A) (A)
                 (A) (A) (A) (A) (A) (A) (A) (A) (A) (A) (A) (A)
                 (A) (A) (A) (A) (A) (A) (A) (A) (A) (A) (A) (A)
                 (A) (A) (A) (A) (A) (A) (A) (A) (A) (A) (A) (A)
                 (A) (A) (A) (A) (A) (A) (A) (A) (A) (A) (A) (A)
                 (A) (A) (A) (A) (A) (A) (A) (A) (A) (A) (A) (A)
                 (A) (A) (A) (A) (A) (A) (A) (A) (A) (A) (A) (A)
                 (A) (A) (A) (A) (A) (A) (A) (A) (A) (A) (A) (A)
                 (A) (A) (A) (A) (A) (A) (A) (A) (A) (A) (A) (A)
                 (A) (A) (A) (A) (A) (A) (A) (A) (A) (A) (A) (A)
                 (A) (A) (A) (A) (A) (A) (A) (A) (A) (A) (A) (A)
                 (A) (A) (A) (A) (A) (A) (A) (A) (A) (A) (A) (A)
                 (A) (A) (A) (A) (A) (A) (A) (A) (A) (A) (A) (A)
                 (A) (A) (A) (A) (A) (A) (A) (A) (A) (A) (A) (A)
                 (A) (A) (A) (A) (A) (A) (A) (A) (A) (A) (A) (A)
                 (A) (A) (A) (A) (A) (A) (A) (A) (A) (A) (A) (A)
                 (A) (A) (A) (A) (A) (A) (A) (A) (A) (A) (A) (A)
                 (A) (A) (A) (A) (A) (A) (A) (A) (A) (A) (A) (A)
                 (A) (A) (A) (A) (A) (A) (A) (A) (A) (A) (A) (A)
                 (A) (A) (A) (A) (A) (A) (A) (A) (A) (A) (A) (A)
                 (A) (A) (A) (A) (A) (A) (A) (A) (A) (A) (A) (A)
                 (A) (A) (A) (A) (A) (A) (A) (A) (A) (A) (A) (A)
                 (A) (A) (A) (A) (A) (A) (A) (A) (A) (A) (A) (A)
                 (A) (A) (A) (A) (A) (A) (A) (A) (A) (A) (A) (A)
                 (A) (A) (A) (A) (A) (A) (A) (A) (A) (A) (A) (A)
                 (A) (A) (A) (A) (A) (A) (A) (A) (A) (A) (A) (A)
                 (A) (A) (A) (A) (A) (A) (A) (A) (A) (A) (A) (A)
                 (A) (A) (A) (A) (A) (A) (A) (A) (A) (A) (A) (A)
                 (A) (A) (A) (A) (A) (A) (A) (A) (A) (A) (A) (A)
                 (A) (A) (A) (A) (A) (A) (A) (A) (A) (A) (A) (A)
                 (A) (A) (A) (A) (A) (A) (A) (A) (A) (A) (A) (A)
                 (A) (A) (A) (A) (A) (A) (A) (A) (A) (A) (A) (A)
                 (A) (A) (A) (A) (A) (A) (A) (A) (A) (A) (A) (A)
                 (A) (A) (A) (A) (A) (A) (A) (A) (A) (A) (A) (A)
                 (A) (A) (A) (A) (A) (A) (A) (A) (A) (A) (A) (A)
                 (A) (A) (A) (A) (A) (A) (A) (A) (A) (A) (A) (A)
                 (A) (A) (A) (A) (A) (A) (A) (A) (A) (A) (A) (A)
                 (A) (A) (A) (A) (A) (A) (A) (A) (A) (A) (A) (A)
                 (A) (A) (A) (A) (A) (A) (A) (A) (A) (A) (A) (A)
                 (A) (A) (A) (A) (A) (A) (A) (A) (A) (A) (A) (A)
                 (A) (A) (A) (A) (A) (A) (A) (A) (A) (A) (A) (A)
                 (A) (A) (A) (A) (A) (A) (A) (A) (A) (A) (A) (A)
                 (A) (A) (A) (A) (A) (A) (A) (A) (A) (A) (A) (A)
                 (A) (A) (A) (A) (A) (A) (A) (A) (A) (A) (A) (A)
                 (A) (A) (A) (A) (A) (A) (A) (A) (A) (A) (A) (A)
                 (A) (A) (A) (A) (A) (A) (A) (A) (A) (A) (A) (A)
                 (A) (A) (A) (A) (A) (A) (A) (A) (A) (A) (A) (A)
                 (A) (A) (A) (A) (A) (A) (A) (A) (A) (A) (A) (A)
                 (A) (A) (A) (A) (A) (A) (A) (A) (A) (A) (A) (A)
                 (A) (A) (A) (A) (A) (A) (A) (A) (A) (A) (A) (A)
                 (A) (A) (A) (A) (A) (A) (A) (A) (A) (A) (A) (A)
                 (A) (A) (A) (A) (A) (A) (A) (A) (A) (A) (A) (A)
                 (A) (A) (A) (A) (A) (A) (A) (A) (A) (A) (A) (A)
                 (A) (A)
    24 initial guesses have been made.
 Convergence on wavefunction:    0.001000000000000
 Iteration     1 Dimension    24 NMult     0 NNew     24
 CISAX will form    24 AO SS matrices at one time.
 New state      6 was old state      7
 Iteration     2 Dimension    36 NMult    24 NNew     12
 New state      4 was old state      5
 New state      5 was old state      4
 Iteration     3 Dimension    48 NMult    36 NNew     12
 Iteration     4 Dimension    60 NMult    48 NNew     12
 Iteration     5 Dimension    72 NMult    60 NNew     12
 Iteration     6 Dimension    76 NMult    72 NNew      4
 ***********************************************************************
 Excited states from <AA,BB:AA,BB> singles matrix:
 ***********************************************************************
 
 Ground to excited state transition densities written to RWF  633
 Ground to excited state transition electric dipole moments (Au):
       state          X           Y           Z        Dip. S.      Osc.
         1        -2.5999      0.0055      0.0166      6.7598      0.4713
         2         0.0062      2.6497      0.1972      7.0600      0.5109
         3         0.0045      0.7950      0.1040      0.6429      0.0638
         4        -0.7819      0.0099     -0.0002      0.6115      0.0650
         5         0.0297      0.1676      0.0330      0.0301      0.0032
         6         0.0033      0.6123     -0.5192      0.6445      0.0764
 Ground to excited state transition velocity dipole moments (Au):
       state          X           Y           Z        Dip. S.      Osc.
         1         0.2802     -0.0006     -0.0017      0.0785      0.5004
         2        -0.0007     -0.2976     -0.0221      0.0890      0.5469
         3        -0.0007     -0.1231     -0.0163      0.0154      0.0690
         4         0.1290     -0.0016      0.0001      0.0166      0.0696
         5        -0.0049     -0.0279     -0.0047      0.0008      0.0034
         6        -0.0006     -0.1171      0.0993      0.0236      0.0883
 Ground to excited state transition magnetic dipole moments (Au):
       state          X           Y           Z
         1        -0.0519     -0.0062      0.0046
         2        -0.0028     -0.0508      0.5882
         3        -0.0006      0.1687     -1.3095
         4        -0.0433     -0.0252     -0.0266
         5         0.0005     -0.3316     -0.5455
         6        -0.0100      0.1999      0.2018
 Ground to excited state transition velocity quadrupole moments (Au):
       state          XX          YY          ZZ          XY          XZ          YZ
         1        -1.5784      0.6924     -0.0164      0.0073      0.0063      0.0884
         2        -0.0033     -0.0005      0.0018     -1.0310     -0.0374      0.0139
         3         0.0013     -0.0039      0.0010     -0.0039      0.0274      0.0035
         4         0.3829     -0.0863      0.0007      0.0014     -0.0015     -0.0198
         5        -0.0184      0.0052     -0.0005      0.0503     -0.0632      0.0020
         6        -0.0021     -0.0015      0.0016      0.6207     -0.6718     -0.0005
 <0|del|b> * <b|rxdel|0> + <0|del|b> * <b|delr+rdel|0>
 Rotatory Strengths (R) in cgs (10**-40 erg-esu-cm/Gauss)
       state          XX          YY          ZZ    R(velocity)    E-M Angle
         1        -0.0438     34.5844   -132.9228    -32.7941      171.66
         2        44.8686   -116.6581     85.4678      4.5594       89.32
         3         9.5976     50.5777    -57.2924      0.9610       89.79
         4         0.0819    -18.0662     -6.6271     -8.2038      139.26
         5        21.6780      6.1851     24.3125     17.3919       49.83
         6       -40.6028    -82.6434    109.8456     -4.4669       94.43
 1/2[<0|r|b>*<b|rxdel|0> + (<0|rxdel|b>*<b|r|0>)*]
 Rotatory Strengths (R) in cgs (10**-40 erg-esu-cm/Gauss)
       state          XX          YY          ZZ     R(length)
         1       -95.4507      0.0240     -0.0538    -31.8268
         2         0.0122     95.1056    -82.0360      4.3606
         3         0.0020    -94.8207     96.3127      0.4980
         4       -23.9380      0.1756     -0.0038     -7.9221
         5        -0.0115     39.2984     12.7407     17.3425
         6         0.0235    -86.5665     74.1012     -4.1473
  1/2[<0|del|b>*<b|r|0> + (<0|r|b>*<b|del|0>)*] (Au)
       state          X           Y           Z        Dip. S.   Osc.(frdel)
         1        -0.7284     -0.0000     -0.0000      0.7284      0.4856
         2        -0.0000     -0.7885     -0.0044      0.7929      0.5286
         3        -0.0000     -0.0979     -0.0017      0.0996      0.0664
         4        -0.1009     -0.0000     -0.0000      0.1009      0.0673
         5        -0.0001     -0.0047     -0.0002      0.0050      0.0033
         6        -0.0000     -0.0717     -0.0515      0.1232      0.0822

 Excitation energies and oscillator strengths:
 
 Excited State   1:      Singlet-A      2.8456 eV  435.71 nm  f=0.4713  <S**2>=0.000
      73 -> 74         0.69756
 This state for optimization and/or second-order correction.
 Total Energy, E(TD-HF/TD-DFT) =  -967.724881645    
 Copying the excited state density for this state as the 1-particle RhoCI density.
 
 Excited State   2:      Singlet-A      2.9536 eV  419.78 nm  f=0.5109  <S**2>=0.000
      72 -> 74         0.69891
 
 Excited State   3:      Singlet-A      4.0518 eV  306.00 nm  f=0.0638  <S**2>=0.000
      70 -> 74         0.24080
      71 -> 74         0.65598
 
 Excited State   4:      Singlet-A      4.3357 eV  285.96 nm  f=0.0650  <S**2>=0.000
      69 -> 74         0.69967
 
 Excited State   5:      Singlet-A      4.3612 eV  284.29 nm  f=0.0032  <S**2>=0.000
      70 -> 74         0.62766
      71 -> 74        -0.21615
      73 -> 75         0.21740
 
 Excited State   6:      Singlet-A      4.8396 eV  256.19 nm  f=0.0764  <S**2>=0.000
      70 -> 74        -0.20488
      70 -> 76         0.11850
      71 -> 74         0.11764
      73 -> 75         0.64788
 SavETr:  write IOETrn=   770 NScale= 10 NData=  16 NLR=1 NState=    6 LETran=     118.

 **********************************************************************

            Population analysis using the SCF Density.

 **********************************************************************

 Orbital symmetries:
       Occupied  (A) (A) (A) (A) (A) (A) (A) (A) (A) (A) (A) (A)
                 (A) (A) (A) (A) (A) (A) (A) (A) (A) (A) (A) (A)
                 (A) (A) (A) (A) (A) (A) (A) (A) (A) (A) (A) (A)
                 (A) (A) (A) (A) (A) (A) (A) (A) (A) (A) (A) (A)
                 (A) (A) (A) (A) (A) (A) (A) (A) (A) (A) (A) (A)
                 (A) (A) (A) (A) (A) (A) (A) (A) (A) (A) (A) (A)
                 (A)
       Virtual   (A) (A) (A) (A) (A) (A) (A) (A) (A) (A) (A) (A)
                 (A) (A) (A) (A) (A) (A) (A) (A) (A) (A) (A) (A)
                 (A) (A) (A) (A) (A) (A) (A) (A) (A) (A) (A) (A)
                 (A) (A) (A) (A) (A) (A) (A) (A) (A) (A) (A) (A)
                 (A) (A) (A) (A) (A) (A) (A) (A) (A) (A) (A) (A)
                 (A) (A) (A) (A) (A) (A) (A) (A) (A) (A) (A) (A)
                 (A) (A) (A) (A) (A) (A) (A) (A) (A) (A) (A) (A)
                 (A) (A) (A) (A) (A) (A) (A) (A) (A) (A) (A) (A)
                 (A) (A) (A) (A) (A) (A) (A) (A) (A) (A) (A) (A)
                 (A) (A) (A) (A) (A) (A) (A) (A) (A) (A) (A) (A)
                 (A) (A) (A) (A) (A) (A) (A) (A) (A) (A) (A) (A)
                 (A) (A) (A) (A) (A) (A) (A) (A) (A) (A) (A) (A)
                 (A) (A) (A) (A) (A) (A) (A) (A) (A) (A) (A) (A)
                 (A) (A) (A) (A) (A) (A) (A) (A) (A) (A) (A) (A)
                 (A) (A) (A) (A) (A) (A) (A) (A) (A) (A) (A) (A)
                 (A) (A) (A) (A) (A) (A) (A) (A) (A) (A) (A) (A)
                 (A) (A) (A) (A) (A) (A) (A) (A) (A) (A) (A) (A)
                 (A) (A) (A) (A) (A) (A) (A) (A) (A) (A) (A) (A)
                 (A) (A) (A) (A) (A) (A) (A) (A) (A) (A) (A) (A)
                 (A) (A) (A) (A) (A) (A) (A) (A) (A) (A) (A) (A)
                 (A) (A) (A) (A) (A) (A) (A) (A) (A) (A) (A) (A)
                 (A) (A) (A) (A) (A) (A) (A) (A) (A) (A) (A) (A)
                 (A) (A) (A) (A) (A) (A) (A) (A) (A) (A) (A) (A)
                 (A) (A) (A) (A) (A) (A) (A) (A) (A) (A) (A) (A)
                 (A) (A) (A) (A) (A) (A) (A) (A) (A) (A) (A) (A)
                 (A) (A) (A) (A) (A) (A) (A) (A) (A) (A) (A) (A)
                 (A) (A) (A) (A) (A) (A) (A) (A) (A) (A) (A) (A)
                 (A) (A) (A) (A) (A) (A) (A) (A) (A) (A) (A) (A)
                 (A) (A) (A) (A) (A) (A) (A) (A) (A) (A) (A) (A)
                 (A) (A) (A) (A) (A) (A) (A) (A) (A) (A) (A) (A)
                 (A) (A) (A) (A) (A) (A) (A) (A) (A) (A) (A) (A)
                 (A) (A) (A) (A) (A) (A) (A) (A) (A) (A) (A) (A)
                 (A) (A) (A) (A) (A) (A) (A) (A) (A) (A) (A) (A)
                 (A) (A) (A) (A) (A) (A) (A) (A) (A) (A) (A) (A)
                 (A) (A) (A) (A) (A) (A) (A) (A) (A) (A) (A) (A)
                 (A) (A) (A) (A) (A) (A) (A) (A) (A) (A) (A) (A)
                 (A) (A) (A) (A) (A) (A) (A) (A) (A) (A) (A) (A)
                 (A) (A) (A) (A) (A) (A) (A) (A) (A) (A) (A) (A)
                 (A) (A) (A) (A) (A) (A) (A) (A) (A) (A) (A) (A)
                 (A) (A) (A) (A) (A) (A) (A) (A) (A) (A) (A) (A)
                 (A) (A) (A) (A) (A) (A) (A) (A) (A) (A) (A) (A)
                 (A) (A) (A) (A) (A) (A) (A) (A) (A) (A) (A) (A)
                 (A) (A) (A) (A) (A) (A) (A) (A) (A) (A) (A) (A)
                 (A) (A) (A) (A) (A) (A) (A) (A) (A) (A) (A) (A)
                 (A) (A) (A) (A) (A) (A) (A) (A) (A) (A) (A) (A)
                 (A) (A) (A) (A) (A) (A) (A) (A) (A) (A) (A) (A)
                 (A) (A) (A) (A) (A) (A) (A) (A) (A) (A) (A) (A)
                 (A) (A) (A) (A) (A) (A) (A) (A) (A) (A) (A) (A)
                 (A) (A) (A) (A) (A) (A) (A) (A) (A) (A) (A) (A)
                 (A) (A) (A) (A) (A) (A) (A) (A) (A) (A) (A) (A)
                 (A) (A) (A) (A) (A) (A) (A) (A) (A) (A) (A) (A)
                 (A) (A) (A) (A) (A) (A) (A) (A) (A) (A) (A) (A)
                 (A) (A) (A) (A) (A) (A) (A) (A) (A) (A) (A) (A)
                 (A) (A) (A) (A) (A) (A) (A) (A) (A) (A) (A) (A)
                 (A) (A)
 The electronic state is 1-A.
 Alpha  occ. eigenvalues --  -25.20532 -25.20485 -14.78216 -14.78208 -14.75870
 Alpha  occ. eigenvalues --  -10.60603 -10.59902 -10.58375 -10.58373 -10.58121
 Alpha  occ. eigenvalues --  -10.58114 -10.55581 -10.55433 -10.55415 -10.55125
 Alpha  occ. eigenvalues --  -10.55119 -10.54113 -10.54111 -10.53805 -10.53800
 Alpha  occ. eigenvalues --   -7.12769  -1.32708  -1.29400  -1.10796  -1.08821
 Alpha  occ. eigenvalues --   -1.04048  -0.96660  -0.91342  -0.89017  -0.87561
 Alpha  occ. eigenvalues --   -0.85026  -0.82618  -0.82066  -0.75352  -0.70656
 Alpha  occ. eigenvalues --   -0.69554  -0.69192  -0.66216  -0.65971  -0.65345
 Alpha  occ. eigenvalues --   -0.61861  -0.60911  -0.60312  -0.59246  -0.58518
 Alpha  occ. eigenvalues --   -0.58226  -0.54407  -0.53438  -0.52043  -0.51690
 Alpha  occ. eigenvalues --   -0.51243  -0.51105  -0.50193  -0.49224  -0.48834
 Alpha  occ. eigenvalues --   -0.47959  -0.47376  -0.47347  -0.46914  -0.46853
 Alpha  occ. eigenvalues --   -0.45515  -0.45018  -0.44516  -0.42855  -0.41966
 Alpha  occ. eigenvalues --   -0.40501  -0.39668  -0.35101  -0.32539  -0.32000
 Alpha  occ. eigenvalues --   -0.31566  -0.26477  -0.25580
 Alpha virt. eigenvalues --   -0.08256   0.01608   0.03033   0.05998   0.07372
 Alpha virt. eigenvalues --    0.07720   0.08121   0.09160   0.09594   0.10158
 Alpha virt. eigenvalues --    0.10579   0.10987   0.12003   0.12184   0.12612
 Alpha virt. eigenvalues --    0.12741   0.13212   0.14067   0.14804   0.15918
 Alpha virt. eigenvalues --    0.16225   0.16376   0.18002   0.18240   0.19668
 Alpha virt. eigenvalues --    0.19897   0.20100   0.20569   0.22003   0.22356
 Alpha virt. eigenvalues --    0.22912   0.23204   0.23416   0.24305   0.25182
 Alpha virt. eigenvalues --    0.25377   0.25841   0.25982   0.26347   0.27647
 Alpha virt. eigenvalues --    0.27834   0.29134   0.29875   0.29993   0.30595
 Alpha virt. eigenvalues --    0.30741   0.32226   0.32419   0.32805   0.33218
 Alpha virt. eigenvalues --    0.33673   0.33800   0.34405   0.34570   0.35455
 Alpha virt. eigenvalues --    0.35915   0.35999   0.36601   0.37637   0.38175
 Alpha virt. eigenvalues --    0.38566   0.38699   0.39033   0.39692   0.40252
 Alpha virt. eigenvalues --    0.40675   0.40993   0.41749   0.42076   0.42401
 Alpha virt. eigenvalues --    0.42638   0.43883   0.44115   0.44529   0.44590
 Alpha virt. eigenvalues --    0.45264   0.45714   0.46126   0.46333   0.47580
 Alpha virt. eigenvalues --    0.47796   0.48312   0.48574   0.49071   0.49309
 Alpha virt. eigenvalues --    0.49635   0.50394   0.50993   0.51651   0.51886
 Alpha virt. eigenvalues --    0.52187   0.53794   0.53906   0.54613   0.55440
 Alpha virt. eigenvalues --    0.55702   0.55878   0.57039   0.57335   0.57421
 Alpha virt. eigenvalues --    0.58828   0.59148   0.60191   0.61547   0.62439
 Alpha virt. eigenvalues --    0.62942   0.63164   0.64288   0.64616   0.65203
 Alpha virt. eigenvalues --    0.66723   0.66939   0.67114   0.68412   0.68714
 Alpha virt. eigenvalues --    0.69022   0.69390   0.69640   0.70451   0.72097
 Alpha virt. eigenvalues --    0.72708   0.72883   0.73112   0.74258   0.74655
 Alpha virt. eigenvalues --    0.74932   0.75317   0.75999   0.76098   0.76778
 Alpha virt. eigenvalues --    0.77438   0.77682   0.77922   0.78590   0.79636
 Alpha virt. eigenvalues --    0.80186   0.80293   0.80991   0.82038   0.82971
 Alpha virt. eigenvalues --    0.84205   0.84509   0.85701   0.86429   0.86815
 Alpha virt. eigenvalues --    0.88078   0.88599   0.88938   0.90104   0.90513
 Alpha virt. eigenvalues --    0.91276   0.91834   0.93465   0.94413   0.96229
 Alpha virt. eigenvalues --    0.97149   0.98226   0.98794   0.99314   1.00207
 Alpha virt. eigenvalues --    1.00334   1.00735   1.01643   1.02401   1.02780
 Alpha virt. eigenvalues --    1.02945   1.04564   1.05887   1.06859   1.07099
 Alpha virt. eigenvalues --    1.08571   1.08814   1.10162   1.11161   1.11833
 Alpha virt. eigenvalues --    1.13609   1.13857   1.14556   1.14802   1.16319
 Alpha virt. eigenvalues --    1.17194   1.17767   1.18067   1.19509   1.21318
 Alpha virt. eigenvalues --    1.21882   1.22992   1.23862   1.24465   1.25030
 Alpha virt. eigenvalues --    1.25676   1.25926   1.27329   1.29628   1.29840
 Alpha virt. eigenvalues --    1.30200   1.30933   1.31694   1.32098   1.32664
 Alpha virt. eigenvalues --    1.33774   1.34834   1.36327   1.36783   1.38717
 Alpha virt. eigenvalues --    1.39162   1.41092   1.41565   1.42188   1.42428
 Alpha virt. eigenvalues --    1.43444   1.43930   1.43958   1.45318   1.47277
 Alpha virt. eigenvalues --    1.48637   1.49516   1.50200   1.51525   1.51657
 Alpha virt. eigenvalues --    1.52297   1.52403   1.53046   1.53654   1.54843
 Alpha virt. eigenvalues --    1.55748   1.56242   1.57103   1.58758   1.58908
 Alpha virt. eigenvalues --    1.59192   1.59969   1.60941   1.62837   1.63250
 Alpha virt. eigenvalues --    1.64021   1.64284   1.64836   1.65298   1.66030
 Alpha virt. eigenvalues --    1.66472   1.67626   1.68674   1.69108   1.69932
 Alpha virt. eigenvalues --    1.70334   1.72633   1.73511   1.74095   1.74448
 Alpha virt. eigenvalues --    1.76112   1.76553   1.77841   1.78290   1.79018
 Alpha virt. eigenvalues --    1.80328   1.81688   1.82006   1.82871   1.83026
 Alpha virt. eigenvalues --    1.84274   1.85006   1.85265   1.86647   1.87355
 Alpha virt. eigenvalues --    1.87902   1.89344   1.90739   1.91043   1.93315
 Alpha virt. eigenvalues --    1.94263   1.94944   1.95510   1.95907   1.96533
 Alpha virt. eigenvalues --    1.98359   1.99296   2.00783   2.02585   2.02924
 Alpha virt. eigenvalues --    2.04623   2.04943   2.05758   2.09190   2.09890
 Alpha virt. eigenvalues --    2.10558   2.11427   2.11937   2.12676   2.13906
 Alpha virt. eigenvalues --    2.14928   2.15849   2.16344   2.16535   2.19614
 Alpha virt. eigenvalues --    2.19740   2.20545   2.21758   2.22561   2.23832
 Alpha virt. eigenvalues --    2.24136   2.24700   2.25118   2.26566   2.27215
 Alpha virt. eigenvalues --    2.27545   2.29216   2.29890   2.30353   2.31493
 Alpha virt. eigenvalues --    2.31552   2.33113   2.35786   2.36059   2.38044
 Alpha virt. eigenvalues --    2.39446   2.39750   2.40445   2.41058   2.41555
 Alpha virt. eigenvalues --    2.43931   2.44162   2.48119   2.49630   2.50227
 Alpha virt. eigenvalues --    2.51573   2.52546   2.53243   2.54351   2.54707
 Alpha virt. eigenvalues --    2.55010   2.56379   2.57950   2.58449   2.58978
 Alpha virt. eigenvalues --    2.59866   2.60441   2.61389   2.62235   2.63826
 Alpha virt. eigenvalues --    2.64082   2.64536   2.64663   2.65588   2.66285
 Alpha virt. eigenvalues --    2.67612   2.67855   2.69002   2.69931   2.70133
 Alpha virt. eigenvalues --    2.70418   2.70913   2.72551   2.72775   2.73395
 Alpha virt. eigenvalues --    2.74232   2.75054   2.76270   2.76926   2.77750
 Alpha virt. eigenvalues --    2.78252   2.78785   2.79688   2.79960   2.80851
 Alpha virt. eigenvalues --    2.81861   2.82294   2.82784   2.83468   2.83809
 Alpha virt. eigenvalues --    2.86314   2.86452   2.86710   2.86793   2.88210
 Alpha virt. eigenvalues --    2.89833   2.90136   2.91377   2.91733   2.92295
 Alpha virt. eigenvalues --    2.93593   2.93941   2.95503   2.96047   2.96489
 Alpha virt. eigenvalues --    2.97473   2.98231   2.99944   3.00060   3.00873
 Alpha virt. eigenvalues --    3.01205   3.02058   3.02734   3.03060   3.03462
 Alpha virt. eigenvalues --    3.05290   3.05456   3.07032   3.07405   3.08626
 Alpha virt. eigenvalues --    3.09475   3.09873   3.10362   3.10932   3.11220
 Alpha virt. eigenvalues --    3.11968   3.12764   3.13283   3.13646   3.14699
 Alpha virt. eigenvalues --    3.15090   3.15872   3.16111   3.16679   3.19339
 Alpha virt. eigenvalues --    3.19419   3.20011   3.20441   3.21180   3.21937
 Alpha virt. eigenvalues --    3.22788   3.22898   3.23115   3.24821   3.25850
 Alpha virt. eigenvalues --    3.26569   3.26661   3.27457   3.28713   3.29653
 Alpha virt. eigenvalues --    3.30049   3.31643   3.31964   3.32352   3.33016
 Alpha virt. eigenvalues --    3.33922   3.34823   3.34888   3.36207   3.36914
 Alpha virt. eigenvalues --    3.38614   3.38900   3.39458   3.39872   3.41360
 Alpha virt. eigenvalues --    3.42116   3.43308   3.43529   3.44926   3.45510
 Alpha virt. eigenvalues --    3.46223   3.46904   3.46993   3.48370   3.48869
 Alpha virt. eigenvalues --    3.49514   3.50390   3.51265   3.51986   3.52747
 Alpha virt. eigenvalues --    3.53907   3.54307   3.54675   3.54966   3.56240
 Alpha virt. eigenvalues --    3.56944   3.57695   3.59391   3.60257   3.60415
 Alpha virt. eigenvalues --    3.62789   3.63468   3.64060   3.65525   3.68898
 Alpha virt. eigenvalues --    3.69305   3.70795   3.72766   3.74374   3.75719
 Alpha virt. eigenvalues --    3.76584   3.77502   3.79506   3.80027   3.80686
 Alpha virt. eigenvalues --    3.81181   3.81347   3.83049   3.84142   3.86264
 Alpha virt. eigenvalues --    3.87730   3.92126   3.92628   3.94877   3.95952
 Alpha virt. eigenvalues --    3.96920   3.98188   4.00407   4.01909   4.02765
 Alpha virt. eigenvalues --    4.03322   4.03415   4.05129   4.06711   4.08240
 Alpha virt. eigenvalues --    4.08591   4.09289   4.10022   4.10886   4.11755
 Alpha virt. eigenvalues --    4.12860   4.13877   4.16002   4.17275   4.18182
 Alpha virt. eigenvalues --    4.18677   4.19992   4.20855   4.22099   4.22828
 Alpha virt. eigenvalues --    4.24142   4.25461   4.26365   4.26621   4.27490
 Alpha virt. eigenvalues --    4.28769   4.29857   4.30347   4.31049   4.35445
 Alpha virt. eigenvalues --    4.36362   4.36948   4.38051   4.38915   4.43771
 Alpha virt. eigenvalues --    4.49512   4.49982   4.51129   4.52516   4.52666
 Alpha virt. eigenvalues --    4.56092   4.58014   4.59187   4.62673   4.63249
 Alpha virt. eigenvalues --    4.63526   4.68276   4.70353   4.70685   4.70941
 Alpha virt. eigenvalues --    4.74508   4.76063   4.76785   4.77811   4.78551
 Alpha virt. eigenvalues --    4.79423   4.80837   4.81343   4.82759   4.85005
 Alpha virt. eigenvalues --    4.85339   4.88661   4.90060   4.92833   4.93884
 Alpha virt. eigenvalues --    4.96104   4.98205   4.99693   5.01957   5.02308
 Alpha virt. eigenvalues --    5.05461   5.08355   5.11683   5.12772   5.13988
 Alpha virt. eigenvalues --    5.14775   5.16181   5.21554   5.22327   5.23526
 Alpha virt. eigenvalues --    5.26454   5.29242   5.29371   5.31368   5.33878
 Alpha virt. eigenvalues --    5.35015   5.39039   5.40408   5.45107   5.46016
 Alpha virt. eigenvalues --    5.47072   5.49312   5.54776   5.55567   5.57164
 Alpha virt. eigenvalues --    5.72858   5.73195   5.78210   5.81407   5.84835
 Alpha virt. eigenvalues --    5.89397   5.89458   5.94659   5.96029   6.14502
 Alpha virt. eigenvalues --    6.93617   6.93723   6.96416   6.96553   6.99157
 Alpha virt. eigenvalues --    6.99708   7.05571   7.11351   7.17473   7.22026
 Alpha virt. eigenvalues --    7.24314   7.26753   7.34325   7.36106   8.42536
 Alpha virt. eigenvalues --    8.44853   8.54539   8.56651   8.82059   8.84896
 Alpha virt. eigenvalues --    8.87777   8.90021   8.91615   8.99300  15.89528
 Alpha virt. eigenvalues --   22.41225  22.49569  22.52679  22.74770  22.76792
 Alpha virt. eigenvalues --   22.78371  22.84324  22.86134  22.86981  22.88454
 Alpha virt. eigenvalues --   23.02207  23.13292  23.27590  23.37545  23.63691
 Alpha virt. eigenvalues --   32.20507  33.02881  33.06966  57.22478  57.46636
          Condensed to atoms (all electrons):
               1          2          3          4          5          6
     1  C    5.597854  -0.115490   0.169420   0.467542  -0.096687  -0.167141
     2  C   -0.115490   5.594508   0.159575   0.026605   0.000078   0.000561
     3  C    0.169420   0.159575   5.542349  -0.086078   0.021217  -0.015761
     4  C    0.467542   0.026605  -0.086078   5.139510   0.500722  -0.050846
     5  C   -0.096687   0.000078   0.021217   0.500722   5.029973   0.527679
     6  C   -0.167141   0.000561  -0.015761  -0.050846   0.527679   4.997878
     7  H    0.004774  -0.000000  -0.000460  -0.025952   0.415390  -0.027804
     8  C   -0.000447  -0.168202  -0.012532   0.000073   0.000077  -0.000744
     9  C    0.027001   0.465048  -0.081439   0.000195  -0.000041   0.000133
    10  C    0.000556  -0.097874   0.018109  -0.000014  -0.000015   0.000068
    11  H    0.000003   0.004795  -0.000475  -0.000000   0.000000  -0.000000
    12  N    0.364693  -0.023183  -0.022944  -0.120865  -0.092508   0.444596
    13  N   -0.023814   0.362409  -0.021982  -0.000535  -0.000364   0.000272
    14  B   -0.064821  -0.064826   0.005990   0.002897  -0.005958  -0.018264
    15  F   -0.005906  -0.006298   0.003042   0.000717  -0.000456  -0.002326
    16  F   -0.006563  -0.006699   0.002693   0.000075  -0.000356  -0.004125
    17  C   -0.263842  -0.256929   0.384572  -0.044113   0.005631  -0.004995
    18  C    0.024006   0.013831  -0.105780   0.000865  -0.000254   0.000270
    19  C    0.011071   0.028425  -0.109980   0.010513  -0.000519   0.000416
    20  C   -0.002796   0.002519   0.011901  -0.000156  -0.000015  -0.000001
    21  H    0.001859   0.000309   0.002681   0.000153  -0.000010  -0.000002
    22  C    0.004170  -0.004365   0.012497  -0.000357  -0.000054  -0.000001
    23  H    0.000361   0.001969   0.001977  -0.004864   0.000101   0.000074
    24  C    0.000997   0.003003  -0.008158   0.000059  -0.000032   0.000005
    25  H    0.000022   0.000087  -0.000069   0.000003   0.000000   0.000000
    26  H    0.000187  -0.000019  -0.000114  -0.000074  -0.000007   0.000001
    27  H   -0.001248  -0.027336  -0.002130  -0.000029   0.000004  -0.000004
    28  H    0.000265   0.009675  -0.000942   0.000001   0.000001  -0.000007
    29  H   -0.027581  -0.001235  -0.002414   0.403770  -0.012164   0.003325
    30  H    0.009748   0.000258  -0.000940   0.004616  -0.022560   0.409023
    31  N   -0.000044  -0.000003  -0.000039   0.000023   0.000000  -0.000000
    32  H   -0.000001   0.000003   0.000004   0.000001  -0.000000   0.000000
    33  H    0.000000   0.000002   0.000001   0.000000  -0.000000   0.000000
               7          8          9         10         11         12
     1  C    0.004774  -0.000447   0.027001   0.000556   0.000003   0.364693
     2  C   -0.000000  -0.168202   0.465048  -0.097874   0.004795  -0.023183
     3  C   -0.000460  -0.012532  -0.081439   0.018109  -0.000475  -0.022944
     4  C   -0.025952   0.000073   0.000195  -0.000014  -0.000000  -0.120865
     5  C    0.415390   0.000077  -0.000041  -0.000015   0.000000  -0.092508
     6  C   -0.027804  -0.000744   0.000133   0.000068  -0.000000   0.444596
     7  H    0.440036  -0.000000  -0.000000   0.000000  -0.000000   0.003675
     8  C   -0.000000   4.996613  -0.052905   0.528514  -0.027762   0.000411
     9  C   -0.000000  -0.052905   5.138600   0.505053  -0.025980  -0.000352
    10  C    0.000000   0.528514   0.505053   5.027555   0.415301  -0.000445
    11  H   -0.000000  -0.027762  -0.025980   0.415301   0.440069   0.000005
    12  N    0.003675   0.000411  -0.000352  -0.000445   0.000005   6.351644
    13  N    0.000006   0.444706  -0.119681  -0.092661   0.003656  -0.039934
    14  B   -0.000041  -0.017766   0.002916  -0.006126  -0.000044   0.347066
    15  F    0.000003  -0.005174   0.000044  -0.000497   0.000006  -0.045468
    16  F    0.000004  -0.001288   0.000702  -0.000355   0.000002  -0.042729
    17  C    0.000044  -0.004308  -0.043303   0.004888   0.000035   0.009427
    18  C    0.000002   0.000408   0.010526  -0.000617   0.000005  -0.000489
    19  C    0.000004   0.000273   0.000729  -0.000260   0.000002   0.000372
    20  C   -0.000000  -0.000011  -0.000196  -0.000029   0.000000   0.000017
    21  H    0.000000   0.000099  -0.004779   0.000050  -0.000001  -0.000017
    22  C   -0.000000  -0.000006  -0.000052  -0.000003  -0.000000  -0.000018
    23  H   -0.000000  -0.000001   0.000137  -0.000011   0.000000  -0.000094
    24  C    0.000000   0.000009  -0.000259  -0.000050   0.000000   0.000004
    25  H   -0.000000   0.000001  -0.000025  -0.000004  -0.000000  -0.000000
    26  H    0.000000   0.000000   0.000006   0.000000  -0.000000   0.000001
    27  H   -0.000000   0.003224   0.402866  -0.011813  -0.001074   0.000044
    28  H   -0.000000   0.409246   0.004691  -0.022683  -0.000510  -0.000010
    29  H   -0.001088  -0.000004  -0.000024   0.000004  -0.000000   0.003598
    30  H   -0.000499  -0.000009   0.000001   0.000001  -0.000000  -0.031970
    31  N    0.000000  -0.000000   0.000012   0.000000   0.000000  -0.000000
    32  H    0.000000   0.000000  -0.000000  -0.000000   0.000000  -0.000000
    33  H   -0.000000   0.000000  -0.000001  -0.000000  -0.000000   0.000000
              13         14         15         16         17         18
     1  C   -0.023814  -0.064821  -0.005906  -0.006563  -0.263842   0.024006
     2  C    0.362409  -0.064826  -0.006298  -0.006699  -0.256929   0.013831
     3  C   -0.021982   0.005990   0.003042   0.002693   0.384572  -0.105780
     4  C   -0.000535   0.002897   0.000717   0.000075  -0.044113   0.000865
     5  C   -0.000364  -0.005958  -0.000456  -0.000356   0.005631  -0.000254
     6  C    0.000272  -0.018264  -0.002326  -0.004125  -0.004995   0.000270
     7  H    0.000006  -0.000041   0.000003   0.000004   0.000044   0.000002
     8  C    0.444706  -0.017766  -0.005174  -0.001288  -0.004308   0.000408
     9  C   -0.119681   0.002916   0.000044   0.000702  -0.043303   0.010526
    10  C   -0.092661  -0.006126  -0.000497  -0.000355   0.004888  -0.000617
    11  H    0.003656  -0.000044   0.000006   0.000002   0.000035   0.000005
    12  N   -0.039934   0.347066  -0.045468  -0.042729   0.009427  -0.000489
    13  N    6.353596   0.348274  -0.043754  -0.043869   0.009528   0.000439
    14  B    0.348274   3.319706   0.373733   0.370551   0.011185  -0.000076
    15  F   -0.043754   0.373733   9.133061  -0.033941   0.000197  -0.000003
    16  F   -0.043869   0.370551  -0.033941   9.133016   0.000136   0.000003
    17  C    0.009528   0.011185   0.000197   0.000136   5.520236   0.437867
    18  C    0.000439  -0.000076  -0.000003   0.000003   0.437867   5.125674
    19  C   -0.000540  -0.000217   0.000002  -0.000003   0.437153  -0.012062
    20  C   -0.000014   0.000005   0.000000   0.000000  -0.079924   0.494519
    21  H   -0.000121  -0.000001  -0.000000  -0.000001  -0.043599   0.411499
    22  C    0.000015   0.000006   0.000000   0.000000  -0.079942  -0.046265
    23  H   -0.000014   0.000001  -0.000001  -0.000000  -0.043676   0.004182
    24  C    0.000005   0.000005   0.000000  -0.000000  -0.017241  -0.046095
    25  H    0.000000   0.000001   0.000000   0.000000   0.003377  -0.012073
    26  H   -0.000000   0.000001   0.000000   0.000000   0.003651  -0.000022
    27  H    0.003569   0.000481   0.000008   0.000005  -0.001782  -0.004945
    28  H   -0.032148  -0.002559   0.000245   0.000395  -0.000045   0.000007
    29  H    0.000044   0.000476   0.000005   0.000008  -0.001926  -0.000056
    30  H    0.000008  -0.002702  -0.000122   0.000911  -0.000046  -0.000001
    31  N   -0.000000   0.000000   0.000000   0.000000   0.002599  -0.000954
    32  H    0.000000   0.000000   0.000000  -0.000000  -0.000006  -0.000740
    33  H    0.000000   0.000000   0.000000   0.000000  -0.000046   0.001612
              19         20         21         22         23         24
     1  C    0.011071  -0.002796   0.001859   0.004170   0.000361   0.000997
     2  C    0.028425   0.002519   0.000309  -0.004365   0.001969   0.003003
     3  C   -0.109980   0.011901   0.002681   0.012497   0.001977  -0.008158
     4  C    0.010513  -0.000156   0.000153  -0.000357  -0.004864   0.000059
     5  C   -0.000519  -0.000015  -0.000010  -0.000054   0.000101  -0.000032
     6  C    0.000416  -0.000001  -0.000002  -0.000001   0.000074   0.000005
     7  H    0.000004  -0.000000   0.000000  -0.000000  -0.000000   0.000000
     8  C    0.000273  -0.000011   0.000099  -0.000006  -0.000001   0.000009
     9  C    0.000729  -0.000196  -0.004779  -0.000052   0.000137  -0.000259
    10  C   -0.000260  -0.000029   0.000050  -0.000003  -0.000011  -0.000050
    11  H    0.000002   0.000000  -0.000001  -0.000000   0.000000   0.000000
    12  N    0.000372   0.000017  -0.000017  -0.000018  -0.000094   0.000004
    13  N   -0.000540  -0.000014  -0.000121   0.000015  -0.000014   0.000005
    14  B   -0.000217   0.000005  -0.000001   0.000006   0.000001   0.000005
    15  F    0.000002   0.000000  -0.000000   0.000000  -0.000001   0.000000
    16  F   -0.000003   0.000000  -0.000001   0.000000  -0.000000  -0.000000
    17  C    0.437153  -0.079924  -0.043599  -0.079942  -0.043676  -0.017241
    18  C   -0.012062   0.494519   0.411499  -0.046265   0.004182  -0.046095
    19  C    5.132651  -0.048377   0.003816   0.490926   0.412535  -0.041297
    20  C   -0.048377   5.087946  -0.020393  -0.013325  -0.001435   0.488310
    21  H    0.003816  -0.020393   0.420733  -0.001208  -0.000143   0.003402
    22  C    0.490926  -0.013325  -0.001208   5.092569  -0.021038   0.483414
    23  H    0.412535  -0.001435  -0.000143  -0.021038   0.421292   0.003663
    24  C   -0.041297   0.488310   0.003402   0.483414   0.003663   4.651666
    25  H   -0.000086   0.395918  -0.003457   0.003050   0.000030  -0.028616
    26  H   -0.012716   0.002970   0.000032   0.396931  -0.003551  -0.029425
    27  H    0.000024   0.000637  -0.003498  -0.000031   0.000031   0.000308
    28  H   -0.000001   0.000000   0.000001   0.000000  -0.000000  -0.000000
    29  H   -0.005204   0.000046   0.000030   0.000679  -0.003306   0.000168
    30  H    0.000008   0.000000  -0.000000   0.000000   0.000001  -0.000000
    31  N   -0.000550  -0.058148  -0.000134  -0.058344  -0.000120   0.322993
    32  H    0.001661   0.005364   0.000011  -0.007248  -0.000026  -0.033735
    33  H   -0.000601  -0.006941  -0.000026   0.005006   0.000012  -0.033933
              25         26         27         28         29         30
     1  C    0.000022   0.000187  -0.001248   0.000265  -0.027581   0.009748
     2  C    0.000087  -0.000019  -0.027336   0.009675  -0.001235   0.000258
     3  C   -0.000069  -0.000114  -0.002130  -0.000942  -0.002414  -0.000940
     4  C    0.000003  -0.000074  -0.000029   0.000001   0.403770   0.004616
     5  C    0.000000  -0.000007   0.000004   0.000001  -0.012164  -0.022560
     6  C    0.000000   0.000001  -0.000004  -0.000007   0.003325   0.409023
     7  H   -0.000000   0.000000  -0.000000  -0.000000  -0.001088  -0.000499
     8  C    0.000001   0.000000   0.003224   0.409246  -0.000004  -0.000009
     9  C   -0.000025   0.000006   0.402866   0.004691  -0.000024   0.000001
    10  C   -0.000004   0.000000  -0.011813  -0.022683   0.000004   0.000001
    11  H   -0.000000  -0.000000  -0.001074  -0.000510  -0.000000  -0.000000
    12  N   -0.000000   0.000001   0.000044  -0.000010   0.003598  -0.031970
    13  N    0.000000  -0.000000   0.003569  -0.032148   0.000044   0.000008
    14  B    0.000001   0.000001   0.000481  -0.002559   0.000476  -0.002702
    15  F    0.000000   0.000000   0.000008   0.000245   0.000005  -0.000122
    16  F    0.000000   0.000000   0.000005   0.000395   0.000008   0.000911
    17  C    0.003377   0.003651  -0.001782  -0.000045  -0.001926  -0.000046
    18  C   -0.012073  -0.000022  -0.004945   0.000007  -0.000056  -0.000001
    19  C   -0.000086  -0.012716   0.000024  -0.000001  -0.005204   0.000008
    20  C    0.395918   0.002970   0.000637   0.000000   0.000046   0.000000
    21  H   -0.003457   0.000032  -0.003498   0.000001   0.000030  -0.000000
    22  C    0.003050   0.396931  -0.000031   0.000000   0.000679   0.000000
    23  H    0.000030  -0.003551   0.000031  -0.000000  -0.003306   0.000001
    24  C   -0.028616  -0.029425   0.000308  -0.000000   0.000168  -0.000000
    25  H    0.442439  -0.000250   0.000062   0.000000  -0.000000  -0.000000
    26  H   -0.000250   0.442589  -0.000002  -0.000000   0.000088   0.000000
    27  H    0.000062  -0.000002   0.415916  -0.000079  -0.000006  -0.000000
    28  H    0.000000  -0.000000  -0.000079   0.422614  -0.000000  -0.000001
    29  H   -0.000000   0.000088  -0.000006  -0.000000   0.416439  -0.000081
    30  H   -0.000000   0.000000  -0.000000  -0.000001  -0.000081   0.422639
    31  N    0.001753   0.001852  -0.000014  -0.000000  -0.000020  -0.000000
    32  H   -0.000168   0.002143   0.000000   0.000000  -0.000000  -0.000000
    33  H    0.002166  -0.000180   0.000001   0.000000  -0.000000   0.000000
              31         32         33
     1  C   -0.000044  -0.000001   0.000000
     2  C   -0.000003   0.000003   0.000002
     3  C   -0.000039   0.000004   0.000001
     4  C    0.000023   0.000001   0.000000
     5  C    0.000000  -0.000000  -0.000000
     6  C   -0.000000   0.000000   0.000000
     7  H    0.000000   0.000000  -0.000000
     8  C   -0.000000   0.000000   0.000000
     9  C    0.000012  -0.000000  -0.000001
    10  C    0.000000  -0.000000  -0.000000
    11  H    0.000000   0.000000  -0.000000
    12  N   -0.000000  -0.000000   0.000000
    13  N   -0.000000   0.000000   0.000000
    14  B    0.000000   0.000000   0.000000
    15  F    0.000000   0.000000   0.000000
    16  F    0.000000  -0.000000   0.000000
    17  C    0.002599  -0.000006  -0.000046
    18  C   -0.000954  -0.000740   0.001612
    19  C   -0.000550   0.001661  -0.000601
    20  C   -0.058148   0.005364  -0.006941
    21  H   -0.000134   0.000011  -0.000026
    22  C   -0.058344  -0.007248   0.005006
    23  H   -0.000120  -0.000026   0.000012
    24  C    0.322993  -0.033735  -0.033933
    25  H    0.001753  -0.000168   0.002166
    26  H    0.001852   0.002143  -0.000180
    27  H   -0.000014   0.000000   0.000001
    28  H   -0.000000   0.000000   0.000000
    29  H   -0.000020  -0.000000  -0.000000
    30  H   -0.000000  -0.000000   0.000000
    31  N    6.585151   0.380547   0.381070
    32  H    0.380547   0.369727  -0.021682
    33  H    0.381070  -0.021682   0.369579
 Mulliken charges:
               1
     1  C    0.091853
     2  C    0.098800
     3  C    0.136208
     4  C   -0.224457
     5  C   -0.268870
     6  C   -0.092278
     7  H    0.191907
     8  C   -0.092491
     9  C   -0.229624
    10  C   -0.266642
    11  H    0.191966
    12  N   -0.104526
    13  N   -0.107097
    14  B    0.400109
    15  F   -0.367119
    16  F   -0.368575
    17  C    0.055200
    18  C   -0.295282
    19  C   -0.298168
    20  C   -0.258391
    21  H    0.232715
    22  C   -0.257006
    23  H    0.231913
    24  C    0.280827
    25  H    0.195840
    26  H    0.195908
    27  H    0.226812
    28  H    0.211844
    29  H    0.226429
    30  H    0.211718
    31  N   -0.557631
    32  H    0.304148
    33  H    0.303959
 Sum of Mulliken charges =  -0.00000
 Mulliken charges with hydrogens summed into heavy atoms:
               1
     1  C    0.091853
     2  C    0.098800
     3  C    0.136208
     4  C    0.001972
     5  C   -0.076963
     6  C    0.119440
     8  C    0.119353
     9  C   -0.002811
    10  C   -0.074675
    12  N   -0.104526
    13  N   -0.107097
    14  B    0.400109
    15  F   -0.367119
    16  F   -0.368575
    17  C    0.055200
    18  C   -0.062567
    19  C   -0.066255
    20  C   -0.062551
    22  C   -0.061099
    24  C    0.280827
    31  N    0.050476
 Electronic spatial extent (au):  <R**2>=           6180.6286
 Charge=              0.0000 electrons
 Dipole moment (field-independent basis, Debye):
    X=            -12.6726    Y=             -0.2502    Z=             -0.4406  Tot=             12.6827
 Quadrupole moment (field-independent basis, Debye-Ang):
   XX=            -91.7526   YY=            -99.6306   ZZ=           -126.7885
   XY=              1.7522   XZ=              1.3633   YZ=             -4.4905
 Traceless Quadrupole moment (field-independent basis, Debye-Ang):
   XX=             14.3046   YY=              6.4267   ZZ=            -20.7313
   XY=              1.7522   XZ=              1.3633   YZ=             -4.4905
 Octapole moment (field-independent basis, Debye-Ang**2):
  XXX=           -358.8225  YYY=             -0.2279  ZZZ=             -0.2137  XYY=             32.4404
  XXY=            -10.5826  XXZ=            -12.4096  XZZ=            -17.8581  YZZ=             -0.2523
  YYZ=             -0.7196  XYZ=             27.6528
 Hexadecapole moment (field-independent basis, Debye-Ang**3):
 XXXX=          -3771.0490 YYYY=          -1931.7366 ZZZZ=           -358.7139 XXXY=             69.8742
 XXXZ=             71.6744 YYYX=              3.1996 YYYZ=             28.1151 ZZZX=              2.2523
 ZZZY=            -24.3154 XXYY=          -1105.7912 XXZZ=          -1019.0147 YYZZ=           -462.6736
 XXYZ=           -111.4633 YYXZ=             -0.8183 ZZXY=              0.0035
 N-N= 1.590167943852D+03 E-N=-5.442367274629D+03  KE= 9.629217799248D+02
 Unable to Open any file for archive entry.
 1\1\GINC-X1001C3S5B0N1\SP\RM062X TD-FC\def2TZVP\C15H12B1F2N3\1008721\0
 5-Feb-2026\0\\# td=(nstates=6) m062x/def2tzvp geom=check guess=read sc
 rf=(SMD, solvent=ethanol)\\BDP-NH2_ethanol_m062x_m062x_m062x\\0,1\C,0,
 0.6243845774,-1.2171156418,-0.0666301741\C,0,0.6239374979,1.2185309487
 ,0.0343965605\C,0,-0.0956929235,0.0003598123,-0.0106120108\C,0,0.17715
 46202,-2.5493256068,-0.2397382957\C,0,1.3088545243,-3.3589169482,-0.29
 20673412\C,0,2.4184593636,-2.5061846929,-0.1705831734\H,0,1.3448633416
 ,-4.4378331114,-0.4197195672\C,0,2.4183632157,2.5097178787,0.100858536
 8\C,0,0.1776696764,2.5535933356,0.1870065421\C,0,1.3094652733,3.364309
 9276,0.2148591214\H,0,1.3458474965,4.4456417765,0.3199507726\N,0,2.010
 239251,-1.2377317345,-0.0385481672\N,0,2.0097522153,1.2388483664,-0.00
 42305606\B,0,2.9439815186,0.0000805273,0.0072077201\F,0,3.7091514325,-
 0.0071101818,1.168475352\F,0,3.7820256985,0.0075148543,-1.1016166387\C
 ,0,-1.5567223194,-0.001726551,-0.0031615748\C,0,-2.2942522574,0.891283
 1313,-0.8091818472\C,0,-2.2809421553,-0.8991624768,0.8100781326\C,0,-3
 .6764651359,0.8832957885,-0.8151520751\H,0,-1.7664355524,1.5710644095,
 -1.4803114159\C,0,-3.6630212122,-0.8970419231,0.8325954848\H,0,-1.7419
 088569,-1.5795519407,1.4716506494\C,0,-4.3991844832,-0.0073318576,0.01
 41807221\H,0,-4.2251292834,1.5622324208,-1.4708708812\H,0,-4.201071845
 1,-1.5800388142,1.4928859096\H,0,-0.8576181502,2.8706064301,0.28570574
 48\H,0,3.4797473926,2.7567302739,0.1066680519\H,0,-0.8589670874,-2.863
 8136852,-0.3384444306\H,0,3.4797782219,-2.7527976853,-0.187534765\N,0,
 -5.7510711092,0.0034682444,0.0368046062\H,0,-6.2582584325,-0.710804336
 8,0.5440462198\H,0,-6.2670965134,0.5747120625,-0.620486208\\Version=ES
 64L-G16RevC.01\State=1-A\HF=-967.8294554\RMSD=1.042e-09\PG=C01 [X(C15H
 12B1F2N3)]\\@
 The archive entry for this job was punched.


 ONE OF THE BENEFITS OF A COLLEGE EDUCATION
 IS TO SHOW THE BOY ITS LITTLE AVAIL 
                                    EMERSON IN 'CULTURE'
 Job cpu time:       0 days  8 hours 37 minutes 53.5 seconds.
 Elapsed time:       0 days  0 hours 16 minutes 22.9 seconds.
 File lengths (MBytes):  RWF=   2088 Int=      0 D2E=      0 Chk=    136 Scr=      1
 Normal termination of Gaussian 16 at Thu Feb  5 17:37:15 2026.
