 Entering Gaussian System, Link 0=g16
 Initial command:
 /home/users/sutd/1008721/g16/l1.exe "/home/users/sutd/1008721/scratch/g16/scratch/Gau-514694.inp" -scrdir="/home/users/sutd/1008721/scratch/g16/scratch/"
 Entering Link 1 = /home/users/sutd/1008721/g16/l1.exe PID=    514695.
  
 Copyright (c) 1988-2019, Gaussian, Inc.  All Rights Reserved.
  
 This is part of the Gaussian(R) 16 program.  It is based on
 the Gaussian(R) 09 system (copyright 2009, Gaussian, Inc.),
 the Gaussian(R) 03 system (copyright 2003, Gaussian, Inc.),
 the Gaussian(R) 98 system (copyright 1998, Gaussian, Inc.),
 the Gaussian(R) 94 system (copyright 1995, Gaussian, Inc.),
 the Gaussian 92(TM) system (copyright 1992, Gaussian, Inc.),
 the Gaussian 90(TM) system (copyright 1990, Gaussian, Inc.),
 the Gaussian 88(TM) system (copyright 1988, Gaussian, Inc.),
 the Gaussian 86(TM) system (copyright 1986, Carnegie Mellon
 University), and the Gaussian 82(TM) system (copyright 1983,
 Carnegie Mellon University). Gaussian is a federally registered
 trademark of Gaussian, Inc.
  
 This software contains proprietary and confidential information,
 including trade secrets, belonging to Gaussian, Inc.
  
 This software is provided under written license and may be
 used, copied, transmitted, or stored only in accord with that
 written license.
  
 The following legend is applicable only to US Government
 contracts under FAR:
  
                    RESTRICTED RIGHTS LEGEND
  
 Use, reproduction and disclosure by the US Government is
 subject to restrictions as set forth in subparagraphs (a)
 and (c) of the Commercial Computer Software - Restricted
 Rights clause in FAR 52.227-19.
  
 Gaussian, Inc.
 340 Quinnipiac St., Bldg. 40, Wallingford CT 06492
  
  
 ---------------------------------------------------------------
 Warning -- This program may not be used in any manner that
 competes with the business of Gaussian, Inc. or will provide
 assistance to any competitor of Gaussian, Inc.  The licensee
 of this program is prohibited from giving any competitor of
 Gaussian, Inc. access to this program.  By using this program,
 the user acknowledges that Gaussian, Inc. is engaged in the
 business of creating and licensing software in the field of
 computational chemistry and represents and warrants to the
 licensee that it is not a competitor of Gaussian, Inc. and that
 it will not use this program in any manner prohibited above.
 ---------------------------------------------------------------
  

 Cite this work as:
 Gaussian 16, Revision C.01,
 M. J. Frisch, G. W. Trucks, H. B. Schlegel, G. E. Scuseria, 
 M. A. Robb, J. R. Cheeseman, G. Scalmani, V. Barone, 
 G. A. Petersson, H. Nakatsuji, X. Li, M. Caricato, A. V. Marenich, 
 J. Bloino, B. G. Janesko, R. Gomperts, B. Mennucci, H. P. Hratchian, 
 J. V. Ortiz, A. F. Izmaylov, J. L. Sonnenberg, D. Williams-Young, 
 F. Ding, F. Lipparini, F. Egidi, J. Goings, B. Peng, A. Petrone, 
 T. Henderson, D. Ranasinghe, V. G. Zakrzewski, J. Gao, N. Rega, 
 G. Zheng, W. Liang, M. Hada, M. Ehara, K. Toyota, R. Fukuda, 
 J. Hasegawa, M. Ishida, T. Nakajima, Y. Honda, O. Kitao, H. Nakai, 
 T. Vreven, K. Throssell, J. A. Montgomery, Jr., J. E. Peralta, 
 F. Ogliaro, M. J. Bearpark, J. J. Heyd, E. N. Brothers, K. N. Kudin, 
 V. N. Staroverov, T. A. Keith, R. Kobayashi, J. Normand, 
 K. Raghavachari, A. P. Rendell, J. C. Burant, S. S. Iyengar, 
 J. Tomasi, M. Cossi, J. M. Millam, M. Klene, C. Adamo, R. Cammi, 
 J. W. Ochterski, R. L. Martin, K. Morokuma, O. Farkas, 
 J. B. Foresman, and D. J. Fox, Gaussian, Inc., Wallingford CT, 2019.
 
 ******************************************
 Gaussian 16:  ES64L-G16RevC.01  3-Jul-2019
                10-Oct-2025 
 ******************************************
 %nprocshared=32
 Will use up to   32 processors via shared memory.
 %mem=64GB
 %oldchk=05BDP-NH2_ethanol_m062x_m062x_m062x.chk
 %chk=06BDP-NH2_ethanol_m062x_m062x_m062x.chk
 Copying data from "05BDP-NH2_ethanol_m062x_m062x_m062x.chk" to current chk file "06BDP-NH2_ethanol_m062x_m062x_m062x.chk"
 IOpt=  2 FromEx=T IUOpen= 4 IOptOp= 5 NList=   0 IFRang= 0 IUIn= 4 IUOut= 2.
 ----------------------------------------------------------------------
 # m062x/def2tzvp geom=check guess=read TD=(Read, NStates=3, Root=2) SC
 RF=(SMD, solvent=ethanol, CorrectedLR, NonEq=Save)
 ----------------------------------------------------------------------
 1/29=2,30=1,38=1,172=1/1;
 2/12=2,40=1/2;
 3/5=44,7=101,11=9,14=-4,25=1,30=1,70=9032201,71=1,72=4,74=-55,116=-2/1,2,3,8;
 4/5=1/1;
 5/5=2,38=6,53=4/2;
 8/6=1,10=1,107=2,108=3/1;
 9/8=2,15=1,41=3,42=1,49=3,70=2,73=22/14;
 10/5=4,13=10,28=2,74=20/2;
 6/7=2,8=2,9=2,10=2,22=-1/1;
 99/5=1,9=1/99;
 ---------------------------------
 BDP-NH2_ethanol_m062x_m062x_m062x
 ---------------------------------
 Structure from the checkpoint file:  "06BDP-NH2_ethanol_m062x_m062x_m062x.chk"
 Charge =  0 Multiplicity = 1
 Redundant internal coordinates found in file.  (old form).
 C,0,0.6239481416,-1.2045350429,-0.1064692806
 C,0,0.6369588477,1.2260360982,0.033041172
 C,0,-0.1101585471,0.0134355618,-0.0183604146
 C,0,0.1752098902,-2.5464924571,-0.3110897673
 C,0,1.3054085904,-3.3486631901,-0.373185429
 C,0,2.4276600853,-2.4979752954,-0.2165535198
 H,0,1.347793841,-4.4246988271,-0.5272085077
 C,0,2.4612135136,2.4936949711,0.0981331454
 C,0,0.2072836624,2.5915842853,0.1028289629
 C,0,1.3488545396,3.3752447178,0.1358450174
 H,0,1.4081359041,4.4602083862,0.1885706219
 N,0,2.0189131224,-1.230981916,-0.0567644237
 N,0,2.0350983078,1.2251804347,0.0424743727
 B,0,2.9555582074,-0.0164555853,0.1242788581
 F,0,3.5960776786,-0.0641877104,1.3604198262
 F,0,3.9108455307,0.0169763735,-0.8846905303
 C,0,-1.5784472873,0.014985039,0.0085606059
 C,0,-2.3331642198,0.8911548437,-0.794956838
 C,0,-2.2894969194,-0.8739183225,0.8380261551
 C,0,-3.7199705444,0.8831606978,-0.7733118369
 H,0,-1.8213720963,1.5729415223,-1.4774034315
 C,0,-3.6758296839,-0.8861716672,0.8709841858
 H,0,-1.73894637,-1.5560245488,1.4897350535
 C,0,-4.4259355295,-0.0046067407,0.0650461204
 H,0,-4.2797464119,1.5645567574,-1.4177014057
 H,0,-4.2000842296,-1.5772494184,1.534676123
 H,0,-0.8260617297,2.9258197536,0.1336988254
 H,0,3.525308705,2.7307882056,0.1221601592
 H,0,-0.8623891518,-2.8513073942,-0.4208144117
 H,0,3.4880522887,-2.7508868905,-0.2237487275
 N,0,-5.7935179459,0.0198642008,0.1273939314
 H,0,-6.2585809323,-0.7896632594,0.5227845478
 H,0,-6.2887812578,0.4636894171,-0.6379181597
 Recover connectivity data from disk.
                           ----------------------------
                           !    Current Parameters    !
                           ! (Angstroms and Degrees)  !
 --------------------------                            --------------------------
 ! Name  Definition              Value                                          !
 --------------------------------------------------------------------------------
 ! R1    R(1,3)                  1.4248                                         !
 ! R2    R(1,4)                  1.4297                                         !
 ! R3    R(1,12)                 1.3961                                         !
 ! R4    R(2,3)                  1.4252                                         !
 ! R5    R(2,9)                  1.4333                                         !
 ! R6    R(2,13)                 1.3982                                         !
 ! R7    R(3,17)                 1.4685                                         !
 ! R8    R(4,5)                  1.3873                                         !
 ! R9    R(4,29)                 1.087                                          !
 ! R10   R(5,6)                  1.4169                                         !
 ! R11   R(5,7)                  1.0878                                         !
 ! R12   R(6,12)                 1.3409                                         !
 ! R13   R(6,30)                 1.0902                                         !
 ! R14   R(8,10)                 1.4198                                         !
 ! R15   R(8,13)                 1.3393                                         !
 ! R16   R(8,28)                 1.0905                                         !
 ! R17   R(9,10)                 1.3851                                         !
 ! R18   R(9,27)                 1.0865                                         !
 ! R19   R(10,11)                1.0879                                         !
 ! R20   R(12,14)                1.5444                                         !
 ! R21   R(13,14)                1.5478                                         !
 ! R22   R(14,15)                1.393                                          !
 ! R23   R(14,16)                1.3899                                         !
 ! R24   R(17,18)                1.4082                                         !
 ! R25   R(17,19)                1.4085                                         !
 ! R26   R(18,20)                1.387                                          !
 ! R27   R(18,21)                1.092                                          !
 ! R28   R(19,22)                1.3868                                         !
 ! R29   R(19,23)                1.0923                                         !
 ! R30   R(20,24)                1.4104                                         !
 ! R31   R(20,25)                1.0922                                         !
 ! R32   R(22,24)                1.4104                                         !
 ! R33   R(22,26)                1.0922                                         !
 ! R34   R(24,31)                1.3692                                         !
 ! R35   R(31,32)                1.0139                                         !
 ! R36   R(31,33)                1.0139                                         !
 ! A1    A(3,1,4)              130.5031                                         !
 ! A2    A(3,1,12)             121.9243                                         !
 ! A3    A(4,1,12)             107.5132                                         !
 ! A4    A(3,2,9)              130.9372                                         !
 ! A5    A(3,2,13)             121.596                                          !
 ! A6    A(9,2,13)             107.4599                                         !
 ! A7    A(1,3,2)              117.3511                                         !
 ! A8    A(1,3,17)             121.1429                                         !
 ! A9    A(2,3,17)             121.5047                                         !
 ! A10   A(1,4,5)              107.0636                                         !
 ! A11   A(1,4,29)             125.2577                                         !
 ! A12   A(5,4,29)             127.6601                                         !
 ! A13   A(4,5,6)              107.0463                                         !
 ! A14   A(4,5,7)              127.5911                                         !
 ! A15   A(6,5,7)              125.3565                                         !
 ! A16   A(5,6,12)             109.8182                                         !
 ! A17   A(5,6,30)             129.0794                                         !
 ! A18   A(12,6,30)            121.0992                                         !
 ! A19   A(10,8,13)            109.871                                          !
 ! A20   A(10,8,28)            128.9712                                         !
 ! A21   A(13,8,28)            121.1521                                         !
 ! A22   A(2,9,10)             107.046                                          !
 ! A23   A(2,9,27)             125.4227                                         !
 ! A24   A(10,9,27)            127.5283                                         !
 ! A25   A(8,10,9)             107.0852                                         !
 ! A26   A(8,10,11)            125.298                                          !
 ! A27   A(9,10,11)            127.6153                                         !
 ! A28   A(1,12,6)             108.5572                                         !
 ! A29   A(1,12,14)            126.5314                                         !
 ! A30   A(6,12,14)            124.9025                                         !
 ! A31   A(2,13,8)             108.5329                                         !
 ! A32   A(2,13,14)            126.5507                                         !
 ! A33   A(8,13,14)            124.638                                          !
 ! A34   A(12,14,13)           105.3072                                         !
 ! A35   A(12,14,15)           110.8507                                         !
 ! A36   A(12,14,16)           110.5281                                         !
 ! A37   A(13,14,15)           110.3545                                         !
 ! A38   A(13,14,16)           110.5539                                         !
 ! A39   A(15,14,16)           109.2066                                         !
 ! A40   A(3,17,18)            121.74                                           !
 ! A41   A(3,17,19)            120.9899                                         !
 ! A42   A(18,17,19)           117.2683                                         !
 ! A43   A(17,18,20)           121.5603                                         !
 ! A44   A(17,18,21)           119.5962                                         !
 ! A45   A(20,18,21)           118.8131                                         !
 ! A46   A(17,19,22)           121.618                                          !
 ! A47   A(17,19,23)           119.4085                                         !
 ! A48   A(22,19,23)           118.9583                                         !
 ! A49   A(18,20,24)           120.8879                                         !
 ! A50   A(18,20,25)           119.9769                                         !
 ! A51   A(24,20,25)           119.1331                                         !
 ! A52   A(19,22,24)           120.8338                                         !
 ! A53   A(19,22,26)           119.9916                                         !
 ! A54   A(24,22,26)           119.1715                                         !
 ! A55   A(20,24,22)           117.8303                                         !
 ! A56   A(20,24,31)           121.0471                                         !
 ! A57   A(22,24,31)           121.0869                                         !
 ! A58   A(24,31,32)           117.4927                                         !
 ! A59   A(24,31,33)           117.474                                          !
 ! A60   A(32,31,33)           114.8232                                         !
 ! D1    D(4,1,3,2)           -172.6978                                         !
 ! D2    D(4,1,3,17)             6.8814                                         !
 ! D3    D(12,1,3,2)             4.13                                           !
 ! D4    D(12,1,3,17)         -176.2908                                         !
 ! D5    D(3,1,4,5)            177.4629                                         !
 ! D6    D(3,1,4,29)            -1.0704                                         !
 ! D7    D(12,1,4,5)             0.2859                                         !
 ! D8    D(12,1,4,29)         -178.2474                                         !
 ! D9    D(3,1,12,6)          -177.5397                                         !
 ! D10   D(3,1,12,14)            1.4113                                         !
 ! D11   D(4,1,12,6)            -0.0685                                         !
 ! D12   D(4,1,12,14)          178.8825                                         !
 ! D13   D(9,2,3,1)            178.979                                          !
 ! D14   D(9,2,3,17)            -0.5986                                         !
 ! D15   D(13,2,3,1)            -2.1055                                         !
 ! D16   D(13,2,3,17)          178.3169                                         !
 ! D17   D(3,2,9,10)           179.7422                                         !
 ! D18   D(3,2,9,27)             0.3294                                         !
 ! D19   D(13,2,9,10)            0.7105                                         !
 ! D20   D(13,2,9,27)         -178.7023                                         !
 ! D21   D(3,2,13,8)          -179.8064                                         !
 ! D22   D(3,2,13,14)           -5.6741                                         !
 ! D23   D(9,2,13,8)            -0.6652                                         !
 ! D24   D(9,2,13,14)          173.467                                          !
 ! D25   D(1,3,17,18)         -133.4594                                         !
 ! D26   D(1,3,17,19)           46.046                                          !
 ! D27   D(2,3,17,18)           46.1022                                         !
 ! D28   D(2,3,17,19)         -134.3924                                         !
 ! D29   D(1,4,5,6)             -0.3833                                         !
 ! D30   D(1,4,5,7)           -179.5218                                         !
 ! D31   D(29,4,5,6)           178.1038                                         !
 ! D32   D(29,4,5,7)            -1.0346                                         !
 ! D33   D(4,5,6,12)             0.3543                                         !
 ! D34   D(4,5,6,30)          -178.9834                                         !
 ! D35   D(7,5,6,12)           179.5173                                         !
 ! D36   D(7,5,6,30)             0.1796                                         !
 ! D37   D(5,6,12,1)            -0.1739                                         !
 ! D38   D(5,6,12,14)         -179.1461                                         !
 ! D39   D(30,6,12,1)          179.2257                                         !
 ! D40   D(30,6,12,14)           0.2534                                         !
 ! D41   D(13,8,10,9)            0.0853                                         !
 ! D42   D(13,8,10,11)         179.6564                                         !
 ! D43   D(28,8,10,9)         -179.0405                                         !
 ! D44   D(28,8,10,11)           0.5306                                         !
 ! D45   D(10,8,13,2)            0.3674                                         !
 ! D46   D(10,8,13,14)        -173.9039                                         !
 ! D47   D(28,8,13,2)          179.5732                                         !
 ! D48   D(28,8,13,14)           5.3019                                         !
 ! D49   D(2,9,10,8)            -0.4879                                         !
 ! D50   D(2,9,10,11)          179.954                                          !
 ! D51   D(27,9,10,8)          178.9087                                         !
 ! D52   D(27,9,10,11)          -0.6494                                         !
 ! D53   D(1,12,14,13)          -7.4737                                         !
 ! D54   D(1,12,14,15)         111.8762                                         !
 ! D55   D(1,12,14,16)        -126.8911                                         !
 ! D56   D(6,12,14,13)         171.3138                                         !
 ! D57   D(6,12,14,15)         -69.3364                                         !
 ! D58   D(6,12,14,16)          51.8963                                         !
 ! D59   D(2,13,14,12)           9.5942                                         !
 ! D60   D(2,13,14,15)        -110.0851                                         !
 ! D61   D(2,13,14,16)         128.9945                                         !
 ! D62   D(8,13,14,12)        -177.1716                                         !
 ! D63   D(8,13,14,15)          63.149                                          !
 ! D64   D(8,13,14,16)         -57.7714                                         !
 ! D65   D(3,17,18,20)         179.5531                                         !
 ! D66   D(3,17,18,21)           1.586                                          !
 ! D67   D(19,17,18,20)          0.0301                                         !
 ! D68   D(19,17,18,21)       -177.937                                          !
 ! D69   D(3,17,19,22)        -179.8196                                         !
 ! D70   D(3,17,19,23)           1.6137                                         !
 ! D71   D(18,17,19,22)         -0.2928                                         !
 ! D72   D(18,17,19,23)       -178.8595                                         !
 ! D73   D(17,18,20,24)          0.3161                                         !
 ! D74   D(17,18,20,25)       -179.1461                                         !
 ! D75   D(21,18,20,24)        178.2987                                         !
 ! D76   D(21,18,20,25)         -1.1635                                         !
 ! D77   D(17,19,22,24)          0.2115                                         !
 ! D78   D(17,19,22,26)       -179.1413                                         !
 ! D79   D(23,19,22,24)        178.7845                                         !
 ! D80   D(23,19,22,26)         -0.5683                                         !
 ! D81   D(18,20,24,22)         -0.3938                                         !
 ! D82   D(18,20,24,31)        177.4572                                         !
 ! D83   D(25,20,24,22)        179.0728                                         !
 ! D84   D(25,20,24,31)         -3.0761                                         !
 ! D85   D(19,22,24,20)          0.1343                                         !
 ! D86   D(19,22,24,31)       -177.7159                                         !
 ! D87   D(26,22,24,20)        179.4923                                         !
 ! D88   D(26,22,24,31)          1.6421                                         !
 ! D89   D(20,24,31,32)        162.7644                                         !
 ! D90   D(20,24,31,33)         19.2477                                         !
 ! D91   D(22,24,31,32)        -19.4547                                         !
 ! D92   D(22,24,31,33)       -162.9714                                         !
 --------------------------------------------------------------------------------
                          Input orientation:                          
 ---------------------------------------------------------------------
 Center     Atomic      Atomic             Coordinates (Angstroms)
 Number     Number       Type             X           Y           Z
 ---------------------------------------------------------------------
      1          6           0        0.623948   -1.204535   -0.106469
      2          6           0        0.636959    1.226036    0.033041
      3          6           0       -0.110159    0.013436   -0.018360
      4          6           0        0.175210   -2.546492   -0.311090
      5          6           0        1.305409   -3.348663   -0.373185
      6          6           0        2.427660   -2.497975   -0.216554
      7          1           0        1.347794   -4.424699   -0.527209
      8          6           0        2.461214    2.493695    0.098133
      9          6           0        0.207284    2.591584    0.102829
     10          6           0        1.348855    3.375245    0.135845
     11          1           0        1.408136    4.460208    0.188571
     12          7           0        2.018913   -1.230982   -0.056764
     13          7           0        2.035098    1.225180    0.042474
     14          5           0        2.955558   -0.016456    0.124279
     15          9           0        3.596078   -0.064188    1.360420
     16          9           0        3.910846    0.016976   -0.884691
     17          6           0       -1.578447    0.014985    0.008561
     18          6           0       -2.333164    0.891155   -0.794957
     19          6           0       -2.289497   -0.873918    0.838026
     20          6           0       -3.719971    0.883161   -0.773312
     21          1           0       -1.821372    1.572942   -1.477403
     22          6           0       -3.675830   -0.886172    0.870984
     23          1           0       -1.738946   -1.556025    1.489735
     24          6           0       -4.425936   -0.004607    0.065046
     25          1           0       -4.279746    1.564557   -1.417701
     26          1           0       -4.200084   -1.577249    1.534676
     27          1           0       -0.826062    2.925820    0.133699
     28          1           0        3.525309    2.730788    0.122160
     29          1           0       -0.862389   -2.851307   -0.420814
     30          1           0        3.488052   -2.750887   -0.223749
     31          7           0       -5.793518    0.019864    0.127394
     32          1           0       -6.258581   -0.789663    0.522785
     33          1           0       -6.288781    0.463689   -0.637918
 ---------------------------------------------------------------------
                    Distance matrix (angstroms):
                    1          2          3          4          5
     1  C    0.000000
     2  C    2.434606   0.000000
     3  C    1.424826   1.425211   0.000000
     4  C    1.429715   3.816230   2.592365   0.000000
     5  C    2.265571   4.641090   3.665166   1.387329   0.000000
     6  C    2.222270   4.139706   3.575890   2.254955   1.416916
     7  H    3.327225   5.722759   4.699105   2.224707   1.087829
     8  C    4.134527   2.222409   3.574523   5.549483   5.974209
     9  C    3.824649   1.433253   2.600444   5.154822   6.059621
    10  C    4.643123   2.266376   3.668005   6.053442   6.743288
    11  H    5.726370   3.328479   4.703385   7.131874   7.829725
    12  N    1.396101   2.820426   2.466373   2.279143   2.256942
    13  N    2.813725   1.398172   2.464580   4.220155   4.650297
    14  B    2.627010   2.632112   3.069179   3.784306   3.751543
    15  F    3.505098   3.490415   3.955155   4.545120   4.363523
    16  F    3.591854   3.608655   4.113273   4.566767   4.286895
    17  C    2.520120   2.524929   1.468536   3.120682   4.447076
    18  C    3.689234   3.101509   2.513016   4.282930   5.602960
    19  C    3.080510   3.690793   2.504059   3.192609   4.529320
    20  C    4.865468   4.444165   3.789079   5.210432   6.582011
    21  H    3.946318   2.906059   2.736625   4.724020   5.934496
    22  C    4.420957   4.874804   3.783416   4.357117   5.694257
    23  H    2.873097   3.937860   2.718549   2.808557   3.994011
    24  C    5.193320   5.210413   4.316621   5.270028   6.650043
    25  H    5.782164   5.137435   4.663646   6.162138   7.511638
    26  H    5.109165   5.788808   4.655072   4.846595   6.090016
    27  H    4.384067   2.244956   3.002935   5.580912   6.645994
    28  H    4.894582   3.258034   4.540966   6.265825   6.490998
    29  H    2.240507   4.367924   2.989075   1.086997   2.224630
    30  H    3.257000   4.900060   4.542112   3.320291   2.267951
    31  N    6.537409   6.543301   5.685232   6.511848   7.873520
    32  H    6.923676   7.200789   6.224219   6.721269   8.035246
    33  H    7.131005   6.999802   6.225910   7.138010   8.501520
                    6          7          8          9         10
     6  C    0.000000
     7  H    2.230444   0.000000
     8  C    5.001692   7.035263   0.000000
     9  C    5.561986   7.136241   2.256059   0.000000
    10  C    5.981866   7.828075   1.419822   1.385062   0.000000
    11  H    7.044138   8.913897   2.232561   2.222871   1.087860
    12  N    1.340850   3.297203   3.754043   4.233141   4.658691
    13  N    3.752744   5.719970   1.339329   2.282895   2.258855
    14  B    2.559840   4.737294   2.558499   3.788845   3.753034
    15  F    3.126558   5.256613   3.069861   4.485375   4.287108
    16  F    2.995201   5.140574   3.033399   4.617377   4.345487
    17  C    4.734400   5.344224   4.740347   3.136333   4.458323
    18  C    5.872495   6.471433   5.133401   3.186119   4.538101
    19  C    5.099144   5.263249   5.870052   4.334067   5.637912
    20  C    7.038141   7.342763   6.446726   4.371460   5.721017
    21  H    6.018005   6.849684   4.655174   2.765902   3.987631
    22  C    6.405719   6.301818   7.048695   5.269100   6.629295
    23  H    4.599924   4.671758   5.998177   4.786855   5.973688
    24  C    7.298490   7.295473   7.326352   5.311154   6.691533
    25  H    7.933235   8.266400   6.971484   4.847704   6.113366
    26  H    6.916758   6.567974   7.937829   6.233318   7.568002
    27  H    6.334582   7.693671   3.315747   1.086494   2.220867
    28  H    5.353459   7.507612   1.090454   3.321000   2.269904
    29  H    3.315266   2.715104   6.315433   5.571667   6.630944
    30  H    1.090159   2.733942   5.353844   6.277905   6.498843
    31  N    8.604974   8.436882   8.617499   6.528703   7.891270
    32  H    8.883453   8.495464   9.327142   7.308666   8.681547
    33  H    9.215495   9.067848   9.012497   6.875718   8.210319
                   11         12         13         14         15
    11  H    0.000000
    12  N    5.729126   0.000000
    13  N    3.298459   2.458220   0.000000
    14  B    4.737000   1.544395   1.547772   0.000000
    15  F    5.160473   2.420179   2.415804   1.393050   0.000000
    16  F    5.211310   2.412938   2.416158   1.389860   2.268521
    17  C    5.358367   3.807585   3.810962   4.535591   5.348785
    18  C    5.263345   4.897854   4.460334   5.444202   6.380771
    19  C    6.522821   4.414809   4.872499   5.362395   5.963937
    20  C    6.325975   6.157745   5.822654   6.795415   7.679508
    21  H    4.641282   4.962660   4.159727   5.283051   6.331050
    22  C    7.409195   5.780113   6.144830   6.729731   7.334565
    23  H    6.913191   4.076619   4.906432   5.125731   5.541190
    24  C    7.347532   6.561624   6.577070   7.381741   8.126145
    25  H    6.581559   7.024265   6.490343   7.564849   8.508782
    26  H    8.349553   6.428726   6.996984   7.458453   7.943542
    27  H    2.710904   5.040750   3.329675   4.791422   5.477254
    28  H    2.734543   4.242271   2.119890   2.805703   3.057807
    29  H    7.680163   3.325641   5.022731   4.786464   5.551464
    30  H    7.516379   2.120463   4.241587   2.807452   3.120835
    31  N    8.460746   7.914077   7.921315   8.749152   9.470582
    32  H    9.297924   8.309485   8.548416   9.255108   9.916766
    33  H    8.711933   8.498673   8.386285   9.288127  10.098636
                   16         17         18         19         20
    16  F    0.000000
    17  C    5.561496   0.000000
    18  C    6.305545   1.408159   0.000000
    19  C    6.496591   1.408458   2.405000   0.000000
    20  C    7.680627   2.439503   1.386998   2.780286   0.000000
    21  H    5.969142   2.166640   1.092015   3.401100   2.139210
    22  C    7.839369   2.440260   2.781546   1.386779   2.415822
    23  H    6.327114   2.165112   3.400235   1.092291   3.872398
    24  C    8.390732   2.848116   2.433451   2.432606   1.410447
    25  H    8.352539   3.425261   2.151851   3.872410   1.092194
    26  H    8.612902   3.425963   3.873706   2.151822   3.407482
    27  H    5.651263   3.009103   2.696965   4.132279   3.656478
    28  H    2.920130   5.782458   6.208628   6.878833   7.530582
    29  H    5.588023   2.985420   4.038463   2.744337   4.715536
    30  H    2.876919   5.776974   6.890378   6.166883   8.090977
    31  N    9.756997   4.216748   3.685638   3.685378   2.419948
    32  H   10.298004   4.776561   4.468835   3.982475   3.304958
    33  H   10.212386   4.775617   3.981745   4.467872   2.606353
                   21         22         23         24         25
    21  H    0.000000
    22  C    3.873135   0.000000
    23  H    4.312903   2.140811   0.000000
    24  C    3.413438   1.410444   3.414168   0.000000
    25  H    2.459113   3.407179   4.964562   2.163836   0.000000
    26  H    4.965340   1.092208   2.461640   2.164261   4.312056
    27  H    2.327353   4.816227   4.770652   4.642327   4.023409
    28  H    5.699667   8.093178   6.925273   8.408801   8.040532
    29  H    4.648656   3.666872   2.469071   4.586788   5.672034
    30  H    6.961116   7.483101   5.628964   8.381925   8.965895
    31  N    4.556903   2.420420   4.558393   1.369222   2.657988
    32  H    5.410312   2.607904   4.685019   2.045587   3.636430
    33  H    4.678987   3.305515   5.413608   2.045398   2.419957
                   26         27         28         29         30
    26  H    0.000000
    27  H    5.798655   0.000000
    28  H    8.957460   4.355754   0.000000
    29  H    4.072760   5.803792   7.120850   0.000000
    30  H    7.973514   7.138932   5.492705   4.356060   0.000000
    31  N    2.658993   5.755019   9.705136   5.732381   9.692673
    32  H    2.425206   6.593062  10.405699   5.853174   9.969983
    33  H    3.639815   6.041422  10.101179   6.362552  10.300073
                   31         32         33
    31  N    0.000000
    32  H    1.013880   0.000000
    33  H    1.013888   1.708519   0.000000
 Stoichiometry    C15H12BF2N3
 Framework group  C1[X(C15H12BF2N3)]
 Deg. of freedom    93
 Full point group                 C1      NOp   1
 Largest Abelian subgroup         C1      NOp   1
 Largest concise Abelian subgroup C1      NOp   1
                         Standard orientation:                         
 ---------------------------------------------------------------------
 Center     Atomic      Atomic             Coordinates (Angstroms)
 Number     Number       Type             X           Y           Z
 ---------------------------------------------------------------------
      1          6           0        0.621942   -1.206612   -0.121114
      2          6           0        0.639190    1.224157    0.014432
      3          6           0       -0.110022    0.012736   -0.034248
      4          6           0        0.170737   -2.548141   -0.323101
      5          6           0        1.299519   -3.352317   -0.385027
      6          6           0        2.423360   -2.503271   -0.230905
      7          1           0        1.339936   -4.428672   -0.537343
      8          6           0        2.465643    2.488840    0.075632
      9          6           0        0.211887    2.590539    0.082431
     10          6           0        1.354810    3.372325    0.113027
     11          1           0        1.415973    4.457272    0.163929
     12          7           0        2.016910   -1.235332   -0.072766
     13          7           0        2.037335    1.220958    0.022463
     14          5           0        2.955782   -0.022095    0.105362
     15          9           0        3.597464   -0.068900    1.340936
     16          9           0        3.910109    0.008087   -0.904619
     17          6           0       -1.578278    0.016807   -0.005856
     18          6           0       -2.332325    0.892942   -0.810039
     19          6           0       -2.289989   -0.869548    0.825767
     20          6           0       -3.719121    0.887323   -0.786989
     21          1           0       -1.820072    1.572755   -1.494106
     22          6           0       -3.676307   -0.879409    0.860137
     23          1           0       -1.739933   -1.551522    1.478031
     24          6           0       -4.425737    0.002110    0.053520
     25          1           0       -4.278396    1.568615   -1.431923
     26          1           0       -4.201057   -1.568522    1.525477
     27          1           0       -0.820862    2.926567    0.113794
     28          1           0        3.530160    2.724177    0.098205
     29          1           0       -0.867484   -2.851383   -0.431289
     30          1           0        3.483317   -2.757982   -0.238754
     31          7           0       -5.793212    0.028989    0.117200
     32          1           0       -6.259241   -0.779109    0.514373
     33          1           0       -6.288497    0.472406   -0.648335
 ---------------------------------------------------------------------
 Rotational constants (GHZ):           0.5783954           0.2122168           0.1650684
 Standard basis: def2TZVP (5D, 7F)
 There are   828 symmetry adapted cartesian basis functions of A   symmetry.
 There are   723 symmetry adapted basis functions of A   symmetry.
   723 basis functions,  1167 primitive gaussians,   828 cartesian basis functions
    73 alpha electrons       73 beta electrons
       nuclear repulsion energy      1584.4555860707 Hartrees.
 NAtoms=   33 NActive=   33 NUniq=   33 SFac= 1.00D+00 NAtFMM=   60 NAOKFM=F Big=F
 Integral buffers will be    131072 words long.
 Regular integral format.
 Two-electron integral symmetry is turned on.
 ------------------------------------------------------------------------------
 Polarizable Continuum Model (PCM)
 =================================
 Model                : PCM.
 Atomic radii         : SMD-Coulomb.
 Polarization charges : Total charges.
 Charge compensation  : None.
 Solution method      : On-the-fly selection.
 Cavity type          : VdW (van der Waals Surface) (Alpha=1.000).
 Cavity algorithm     : GePol (No added spheres)
                        Default sphere list used, NSphG=   33.
                        Lebedev-Laikov grids with approx.  5.0 points / Ang**2.
                        Smoothing algorithm: York/Karplus (Gamma=1.0000).
                        Polarization charges: spherical gaussians, with
                                              point-specific exponents (IZeta= 3).
                        Self-potential: point-specific (ISelfS= 7).
                        Self-field    : sphere-specific E.n sum rule (ISelfD= 2).
 1st derivatives      : Analytical E(r).r(x)/FMM algorithm (CHGder, D1EAlg=3).
                        Cavity 1st derivative terms included.
 Solvent              : Ethanol, Eps=  24.852000 Eps(inf)=   1.852593
 ------------------------------------------------------------------------------
 ------------------------------------------------------------------------------
 Atomic radii for non-electrostatic terms: SMD-CDS.
 ------------------------------------------------------------------------------
 Nuclear repulsion after PCM non-electrostatic terms =     1584.4548929817 Hartrees.
 One-electron integrals computed using PRISM.
   1 Symmetry operations used in ECPInt.
 ECPInt:  NShTT=   39060 NPrTT=  121776 LenC2=   34318 LenP2D=   76532.
 LDataN:  DoStor=T MaxTD1= 6 Len=  172
 NBasis=   723 RedAO= T EigKep=  7.85D-06  NBF=   723
 NBsUse=   723 1.00D-06 EigRej= -1.00D+00 NBFU=   723
 Initial guess from the checkpoint file:  "06BDP-NH2_ethanol_m062x_m062x_m062x.chk"
 B after Tr=     0.000000   -0.000000   -0.000000
         Rot=    1.000000    0.000000   -0.000000    0.000000 Ang=   0.00 deg.
 Requested convergence on RMS density matrix=1.00D-08 within 128 cycles.
 Requested convergence on MAX density matrix=1.00D-06.
 Requested convergence on             energy=1.00D-06.
 No special actions if energy rises.
 Inv3:  Mode=1 IEnd=    19783872.
 Iteration    1 A*A^-1 deviation from unit magnitude is 5.11D-15 for   2566.
 Iteration    1 A*A^-1 deviation from orthogonality  is 2.20D-15 for   2554    781.
 Iteration    1 A^-1*A deviation from unit magnitude is 5.11D-15 for   2566.
 Iteration    1 A^-1*A deviation from orthogonality  is 1.74D-15 for   2553   2548.
 Error on total polarization charges =  0.04917
 SCF Done:  E(RM062X) =  -967.827063867     A.U. after    1 cycles
            NFock=  1  Conv=0.94D-09     -V/T= 2.0053
 SMD-CDS (non-electrostatic) energy       (kcal/mol) =      -0.43
 (included in total energy above)
 DoSCS=F DFT=T ScalE2(SS,OS)=  1.000000  1.000000
 ExpMin= 6.06D-02 ExpMax= 3.55D+04 ExpMxC= 1.21D+03 IAcc=3 IRadAn=         5 AccDes= 0.00D+00
 HarFok:  IExCor=  205 AccDes= 0.00D+00 IRadAn=         5 IDoV=-2 UseB2=F ITyADJ=14
 ICtDFT= 12500011 ScaDFX=  1.000000  1.000000  1.000000  1.000000
 GSVD:  LWork=        -609 too small for GESVD, short by        2520 words or        2520 for optimal perf.
 Range of M.O.s used for correlation:    22   723
 NBasis=   723 NAE=    73 NBE=    73 NFC=    21 NFV=     0
 NROrb=    702 NOA=    52 NOB=    52 NVA=   650 NVB=   650

 **** Warning!!: The largest alpha MO coefficient is  0.51220518D+02

 NEqPCM:  Using equilibrium solvation (IEInf=0, Eps=  24.8520, EpsInf=   1.8526)
 Orbital symmetries:
       Occupied  (A) (A) (A) (A) (A) (A) (A) (A) (A) (A) (A) (A)
                 (A) (A) (A) (A) (A) (A) (A) (A) (A) (A) (A) (A)
                 (A) (A) (A) (A) (A) (A) (A) (A) (A) (A) (A) (A)
                 (A) (A) (A) (A) (A) (A) (A) (A) (A) (A) (A) (A)
                 (A) (A) (A) (A) (A) (A) (A) (A) (A) (A) (A) (A)
                 (A) (A) (A) (A) (A) (A) (A) (A) (A) (A) (A) (A)
                 (A)
       Virtual   (A) (A) (A) (A) (A) (A) (A) (A) (A) (A) (A) (A)
                 (A) (A) (A) (A) (A) (A) (A) (A) (A) (A) (A) (A)
                 (A) (A) (A) (A) (A) (A) (A) (A) (A) (A) (A) (A)
                 (A) (A) (A) (A) (A) (A) (A) (A) (A) (A) (A) (A)
                 (A) (A) (A) (A) (A) (A) (A) (A) (A) (A) (A) (A)
                 (A) (A) (A) (A) (A) (A) (A) (A) (A) (A) (A) (A)
                 (A) (A) (A) (A) (A) (A) (A) (A) (A) (A) (A) (A)
                 (A) (A) (A) (A) (A) (A) (A) (A) (A) (A) (A) (A)
                 (A) (A) (A) (A) (A) (A) (A) (A) (A) (A) (A) (A)
                 (A) (A) (A) (A) (A) (A) (A) (A) (A) (A) (A) (A)
                 (A) (A) (A) (A) (A) (A) (A) (A) (A) (A) (A) (A)
                 (A) (A) (A) (A) (A) (A) (A) (A) (A) (A) (A) (A)
                 (A) (A) (A) (A) (A) (A) (A) (A) (A) (A) (A) (A)
                 (A) (A) (A) (A) (A) (A) (A) (A) (A) (A) (A) (A)
                 (A) (A) (A) (A) (A) (A) (A) (A) (A) (A) (A) (A)
                 (A) (A) (A) (A) (A) (A) (A) (A) (A) (A) (A) (A)
                 (A) (A) (A) (A) (A) (A) (A) (A) (A) (A) (A) (A)
                 (A) (A) (A) (A) (A) (A) (A) (A) (A) (A) (A) (A)
                 (A) (A) (A) (A) (A) (A) (A) (A) (A) (A) (A) (A)
                 (A) (A) (A) (A) (A) (A) (A) (A) (A) (A) (A) (A)
                 (A) (A) (A) (A) (A) (A) (A) (A) (A) (A) (A) (A)
                 (A) (A) (A) (A) (A) (A) (A) (A) (A) (A) (A) (A)
                 (A) (A) (A) (A) (A) (A) (A) (A) (A) (A) (A) (A)
                 (A) (A) (A) (A) (A) (A) (A) (A) (A) (A) (A) (A)
                 (A) (A) (A) (A) (A) (A) (A) (A) (A) (A) (A) (A)
                 (A) (A) (A) (A) (A) (A) (A) (A) (A) (A) (A) (A)
                 (A) (A) (A) (A) (A) (A) (A) (A) (A) (A) (A) (A)
                 (A) (A) (A) (A) (A) (A) (A) (A) (A) (A) (A) (A)
                 (A) (A) (A) (A) (A) (A) (A) (A) (A) (A) (A) (A)
                 (A) (A) (A) (A) (A) (A) (A) (A) (A) (A) (A) (A)
                 (A) (A) (A) (A) (A) (A) (A) (A) (A) (A) (A) (A)
                 (A) (A) (A) (A) (A) (A) (A) (A) (A) (A) (A) (A)
                 (A) (A) (A) (A) (A) (A) (A) (A) (A) (A) (A) (A)
                 (A) (A) (A) (A) (A) (A) (A) (A) (A) (A) (A) (A)
                 (A) (A) (A) (A) (A) (A) (A) (A) (A) (A) (A) (A)
                 (A) (A) (A) (A) (A) (A) (A) (A) (A) (A) (A) (A)
                 (A) (A) (A) (A) (A) (A) (A) (A) (A) (A) (A) (A)
                 (A) (A) (A) (A) (A) (A) (A) (A) (A) (A) (A) (A)
                 (A) (A) (A) (A) (A) (A) (A) (A) (A) (A) (A) (A)
                 (A) (A) (A) (A) (A) (A) (A) (A) (A) (A) (A) (A)
                 (A) (A) (A) (A) (A) (A) (A) (A) (A) (A) (A) (A)
                 (A) (A) (A) (A) (A) (A) (A) (A) (A) (A) (A) (A)
                 (A) (A) (A) (A) (A) (A) (A) (A) (A) (A) (A) (A)
                 (A) (A) (A) (A) (A) (A) (A) (A) (A) (A) (A) (A)
                 (A) (A) (A) (A) (A) (A) (A) (A) (A) (A) (A) (A)
                 (A) (A) (A) (A) (A) (A) (A) (A) (A) (A) (A) (A)
                 (A) (A) (A) (A) (A) (A) (A) (A) (A) (A) (A) (A)
                 (A) (A) (A) (A) (A) (A) (A) (A) (A) (A) (A) (A)
                 (A) (A) (A) (A) (A) (A) (A) (A) (A) (A) (A) (A)
                 (A) (A) (A) (A) (A) (A) (A) (A) (A) (A) (A) (A)
                 (A) (A) (A) (A) (A) (A) (A) (A) (A) (A) (A) (A)
                 (A) (A) (A) (A) (A) (A) (A) (A) (A) (A) (A) (A)
                 (A) (A) (A) (A) (A) (A) (A) (A) (A) (A) (A) (A)
                 (A) (A) (A) (A) (A) (A) (A) (A) (A) (A) (A) (A)
                 (A) (A)
 Generating guess from checkpoint file densities.
 Convergence on wavefunction:    0.000001000000000
 Iteration     1 Dimension     6 NMult     0 NNew      6
 CISAX will form     6 AO SS matrices at one time.
 New state      1 was old state      2
 New state      2 was old state      1
 Iteration     2 Dimension    12 NMult     6 NNew      6
 Iteration     3 Dimension    18 NMult    12 NNew      6
 Iteration     4 Dimension    24 NMult    18 NNew      6
 Iteration     5 Dimension    30 NMult    24 NNew      6
 Iteration     6 Dimension    36 NMult    30 NNew      6
 Iteration     7 Dimension    42 NMult    36 NNew      6
 Iteration     8 Dimension    48 NMult    42 NNew      6
 Iteration     9 Dimension    54 NMult    48 NNew      6
 Iteration    10 Dimension    60 NMult    54 NNew      6
 Iteration    11 Dimension    66 NMult    60 NNew      6
 Iteration    12 Dimension    68 NMult    66 NNew      2
 Iteration    13 Dimension    70 NMult    68 NNew      2
 Iteration    14 Dimension    72 NMult    70 NNew      2
 PCM Corrected Linear-Response:
 The state of interest is root number   2
 Excitation energy =    3.0059 eV, Total energy =  -967.716600180    
 Recompute the excitation energies using the linear response reaction field.
 Convergence on wavefunction:    0.000001000000000
 Iteration     1 Dimension     6 NMult     0 NNew      6
 New state      1 was old state      2
 New state      2 was old state      1
 Iteration     2 Dimension    12 NMult     6 NNew      6
 Iteration     3 Dimension    18 NMult    12 NNew      6
 Iteration     4 Dimension    24 NMult    18 NNew      6
 Iteration     5 Dimension    30 NMult    24 NNew      6
 Iteration     6 Dimension    36 NMult    30 NNew      6
 Iteration     7 Dimension    42 NMult    36 NNew      6
 Iteration     8 Dimension    48 NMult    42 NNew      6
 Iteration     9 Dimension    54 NMult    48 NNew      6
 Iteration    10 Dimension    60 NMult    54 NNew      6
 Iteration    11 Dimension    64 NMult    60 NNew      4
 Iteration    12 Dimension    66 NMult    64 NNew      2
 Iteration    13 Dimension    68 NMult    66 NNew      2
 Iteration    14 Dimension    70 NMult    68 NNew      2
 ***********************************************************************
 Excited states from <AA,BB:AA,BB> singles matrix:
 ***********************************************************************
 
 Ground to excited state transition densities written to RWF  633
 Ground to excited state transition electric dipole moments (Au):
       state          X           Y           Z        Dip. S.      Osc.
         1        -2.9574      0.2102      0.0904      8.7986      0.6048
         2         0.2144      3.4148      0.2367     11.7630      0.7333
         3         0.0120      0.9154      0.0854      0.8454      0.0830
 Ground to excited state transition velocity dipole moments (Au):
       state          X           Y           Z        Dip. S.      Osc.
         1         0.3146     -0.0224     -0.0095      0.0996      0.6438
         2        -0.0207     -0.3304     -0.0228      0.1101      0.7850
         3        -0.0018     -0.1402     -0.0131      0.0198      0.0898
 Ground to excited state transition magnetic dipole moments (Au):
       state          X           Y           Z
         1        -0.0513     -0.0259      0.0638
         2        -0.0306     -0.0248      0.4903
         3         0.0306      0.1753     -1.4595
 Ground to excited state transition velocity quadrupole moments (Au):
       state          XX          YY          ZZ          XY          XZ          YZ
         1        -1.6909      0.7308     -0.0115     -0.0442      0.0157      0.0893
         2         0.0733     -0.0461      0.0097     -1.0625     -0.0616      0.0581
         3        -0.0285     -0.0075      0.0063      0.1545      0.0142      0.0321
 <0|del|b> * <b|rxdel|0> + <0|del|b> * <b|delr+rdel|0>
 Rotatory Strengths (R) in cgs (10**-40 erg-esu-cm/Gauss)
       state          XX          YY          ZZ    R(velocity)    E-M Angle
         1         2.5596     37.5152   -150.9526    -36.9593      126.63
         2         3.4157   -136.1334    114.8724     -5.9484       90.83
         3       -13.1463     50.4965    -63.7688     -8.8062       91.52
 1/2[<0|r|b>*<b|rxdel|0> + (<0|rxdel|b>*<b|r|0>)*]
 Rotatory Strengths (R) in cgs (10**-40 erg-esu-cm/Gauss)
       state          XX          YY          ZZ     R(length)
         1      -107.3061      3.8451     -4.0774    -35.8462
         2         4.6456     59.9001    -82.0639     -5.8394
         3        -0.2589   -113.4451     88.1267     -8.5257
  1/2[<0|del|b>*<b|r|0> + (<0|r|b>*<b|del|0>)*] (Au)
       state          X           Y           Z        Dip. S.   Osc.(frdel)
         1        -0.9305     -0.0047     -0.0009      0.9361      0.6240
         2        -0.0044     -1.1282     -0.0054      1.1381      0.7587
         3        -0.0000     -0.1283     -0.0011      0.1295      0.0863

 Excitation energies and oscillator strengths:
 
 Excited State   1:      Singlet-A      2.8059 eV  441.88 nm  f=0.6048  <S**2>=0.000
      72 -> 74         0.27573
      73 -> 74         0.63751
 
 Excited State   2:      Singlet-A      2.5445 eV  487.27 nm  f=0.7333  <S**2>=0.000
      72 -> 74         0.64358
      73 -> 74        -0.27784
 This state for optimization and/or second-order correction.
 Total Energy, E(TD-HF/TD-DFT) =  -967.733556308    
 Copying the excited state density for this state as the 1-particle RhoCI density.
 
 Excited State   3:      Singlet-A      4.0079 eV  309.35 nm  f=0.0830  <S**2>=0.000
      70 -> 74        -0.48974
      71 -> 74         0.50296
 SavETr:  write IOETrn=   770 NScale= 10 NData=  16 NLR=1 NState=    3 LETran=      64.
 NEqPCM:  Using equilibrium solvation (IEInf=0, Eps=  24.8520, EpsInf=   1.8526)
          Differentiating once with respect to electric field.
                with respect to dipole field.
          Electric field/nuclear overlap derivatives assumed to be zero.
          There are     1 degrees of freedom in the 1st order CPHF.  IDoFFX=0 NUNeed=     1.
 LinEq1:  Iter=  0 NonCon=     1 RMS=2.32D-03 Max=2.72D-01 NDo=     1
 AX will form     1 AO Fock derivatives at one time.
 LinEq1:  Iter=  1 NonCon=     1 RMS=8.03D-04 Max=9.68D-02 NDo=     1
 LinEq1:  Iter=  2 NonCon=     1 RMS=5.16D-04 Max=4.27D-02 NDo=     1
 LinEq1:  Iter=  3 NonCon=     1 RMS=1.14D-04 Max=6.91D-03 NDo=     1
 LinEq1:  Iter=  4 NonCon=     1 RMS=6.37D-05 Max=4.81D-03 NDo=     1
 LinEq1:  Iter=  5 NonCon=     1 RMS=2.85D-05 Max=1.27D-03 NDo=     1
 LinEq1:  Iter=  6 NonCon=     1 RMS=1.61D-05 Max=1.02D-03 NDo=     1
 LinEq1:  Iter=  7 NonCon=     1 RMS=7.15D-06 Max=4.43D-04 NDo=     1
 LinEq1:  Iter=  8 NonCon=     1 RMS=3.59D-06 Max=2.26D-04 NDo=     1
 LinEq1:  Iter=  9 NonCon=     1 RMS=1.45D-06 Max=1.21D-04 NDo=     1
 LinEq1:  Iter= 10 NonCon=     1 RMS=6.01D-07 Max=3.95D-05 NDo=     1
 LinEq1:  Iter= 11 NonCon=     1 RMS=3.01D-07 Max=1.69D-05 NDo=     1
 LinEq1:  Iter= 12 NonCon=     1 RMS=8.56D-08 Max=4.16D-06 NDo=     1
 LinEq1:  Iter= 13 NonCon=     1 RMS=5.01D-08 Max=2.39D-06 NDo=     1
 LinEq1:  Iter= 14 NonCon=     1 RMS=1.89D-08 Max=7.08D-07 NDo=     1
 LinEq1:  Iter= 15 NonCon=     1 RMS=5.94D-09 Max=2.04D-07 NDo=     1
 LinEq1:  Iter= 16 NonCon=     1 RMS=3.28D-09 Max=2.31D-07 NDo=     1
 LinEq1:  Iter= 17 NonCon=     1 RMS=1.19D-09 Max=8.52D-08 NDo=     1
 LinEq1:  Iter= 18 NonCon=     1 RMS=6.81D-10 Max=6.61D-08 NDo=     1
 LinEq1:  Iter= 19 NonCon=     1 RMS=3.40D-10 Max=2.96D-08 NDo=     1
 LinEq1:  Iter= 20 NonCon=     1 RMS=1.27D-10 Max=5.82D-09 NDo=     1
 LinEq1:  Iter= 21 NonCon=     1 RMS=7.87D-11 Max=3.57D-09 NDo=     1
 LinEq1:  Iter= 22 NonCon=     1 RMS=2.87D-11 Max=1.15D-09 NDo=     1
 LinEq1:  Iter= 23 NonCon=     0 RMS=1.36D-11 Max=7.20D-10 NDo=     1
 Linear equations converged to 1.000D-10 1.000D-09 after    23 iterations.
 PCM Corrected Linear-Response - Equilibrium solvation:
 Corrected transition energy               =    2.9748          eV
 Total energy after correction             = -967.717742859     a.u.
 NEqPCM:  Using non-equilibrium solvation (IEInf=1, Eps=  24.8520, EpsInf=   1.8526)
 Inv3:  Mode=1 IEnd=    19783872.
 Iteration    1 A*A^-1 deviation from unit magnitude is 6.00D-15 for   2565.
 Iteration    1 A*A^-1 deviation from orthogonality  is 2.71D-15 for   2545    573.
 Iteration    1 A^-1*A deviation from unit magnitude is 6.00D-15 for   2565.
 Iteration    1 A^-1*A deviation from orthogonality  is 1.82D-15 for   1710    344.
 End of Minotr F.D. properties file   721 does not exist.
 End of Minotr F.D. properties file   722 does not exist.
 End of Minotr F.D. properties file   788 does not exist.

 **********************************************************************

            Population analysis using the CI Density.

 **********************************************************************

 Orbital symmetries:
       Occupied  (A) (A) (A) (A) (A) (A) (A) (A) (A) (A) (A) (A)
                 (A) (A) (A) (A) (A) (A) (A) (A) (A) (A) (A) (A)
                 (A) (A) (A) (A) (A) (A) (A) (A) (A) (A) (A) (A)
                 (A) (A) (A) (A) (A) (A) (A) (A) (A) (A) (A) (A)
                 (A) (A) (A) (A) (A) (A) (A) (A) (A) (A) (A) (A)
                 (A) (A) (A) (A) (A) (A) (A) (A) (A) (A) (A) (A)
                 (A)
       Virtual   (A) (A) (A) (A) (A) (A) (A) (A) (A) (A) (A) (A)
                 (A) (A) (A) (A) (A) (A) (A) (A) (A) (A) (A) (A)
                 (A) (A) (A) (A) (A) (A) (A) (A) (A) (A) (A) (A)
                 (A) (A) (A) (A) (A) (A) (A) (A) (A) (A) (A) (A)
                 (A) (A) (A) (A) (A) (A) (A) (A) (A) (A) (A) (A)
                 (A) (A) (A) (A) (A) (A) (A) (A) (A) (A) (A) (A)
                 (A) (A) (A) (A) (A) (A) (A) (A) (A) (A) (A) (A)
                 (A) (A) (A) (A) (A) (A) (A) (A) (A) (A) (A) (A)
                 (A) (A) (A) (A) (A) (A) (A) (A) (A) (A) (A) (A)
                 (A) (A) (A) (A) (A) (A) (A) (A) (A) (A) (A) (A)
                 (A) (A) (A) (A) (A) (A) (A) (A) (A) (A) (A) (A)
                 (A) (A) (A) (A) (A) (A) (A) (A) (A) (A) (A) (A)
                 (A) (A) (A) (A) (A) (A) (A) (A) (A) (A) (A) (A)
                 (A) (A) (A) (A) (A) (A) (A) (A) (A) (A) (A) (A)
                 (A) (A) (A) (A) (A) (A) (A) (A) (A) (A) (A) (A)
                 (A) (A) (A) (A) (A) (A) (A) (A) (A) (A) (A) (A)
                 (A) (A) (A) (A) (A) (A) (A) (A) (A) (A) (A) (A)
                 (A) (A) (A) (A) (A) (A) (A) (A) (A) (A) (A) (A)
                 (A) (A) (A) (A) (A) (A) (A) (A) (A) (A) (A) (A)
                 (A) (A) (A) (A) (A) (A) (A) (A) (A) (A) (A) (A)
                 (A) (A) (A) (A) (A) (A) (A) (A) (A) (A) (A) (A)
                 (A) (A) (A) (A) (A) (A) (A) (A) (A) (A) (A) (A)
                 (A) (A) (A) (A) (A) (A) (A) (A) (A) (A) (A) (A)
                 (A) (A) (A) (A) (A) (A) (A) (A) (A) (A) (A) (A)
                 (A) (A) (A) (A) (A) (A) (A) (A) (A) (A) (A) (A)
                 (A) (A) (A) (A) (A) (A) (A) (A) (A) (A) (A) (A)
                 (A) (A) (A) (A) (A) (A) (A) (A) (A) (A) (A) (A)
                 (A) (A) (A) (A) (A) (A) (A) (A) (A) (A) (A) (A)
                 (A) (A) (A) (A) (A) (A) (A) (A) (A) (A) (A) (A)
                 (A) (A) (A) (A) (A) (A) (A) (A) (A) (A) (A) (A)
                 (A) (A) (A) (A) (A) (A) (A) (A) (A) (A) (A) (A)
                 (A) (A) (A) (A) (A) (A) (A) (A) (A) (A) (A) (A)
                 (A) (A) (A) (A) (A) (A) (A) (A) (A) (A) (A) (A)
                 (A) (A) (A) (A) (A) (A) (A) (A) (A) (A) (A) (A)
                 (A) (A) (A) (A) (A) (A) (A) (A) (A) (A) (A) (A)
                 (A) (A) (A) (A) (A) (A) (A) (A) (A) (A) (A) (A)
                 (A) (A) (A) (A) (A) (A) (A) (A) (A) (A) (A) (A)
                 (A) (A) (A) (A) (A) (A) (A) (A) (A) (A) (A) (A)
                 (A) (A) (A) (A) (A) (A) (A) (A) (A) (A) (A) (A)
                 (A) (A) (A) (A) (A) (A) (A) (A) (A) (A) (A) (A)
                 (A) (A) (A) (A) (A) (A) (A) (A) (A) (A) (A) (A)
                 (A) (A) (A) (A) (A) (A) (A) (A) (A) (A) (A) (A)
                 (A) (A) (A) (A) (A) (A) (A) (A) (A) (A) (A) (A)
                 (A) (A) (A) (A) (A) (A) (A) (A) (A) (A) (A) (A)
                 (A) (A) (A) (A) (A) (A) (A) (A) (A) (A) (A) (A)
                 (A) (A) (A) (A) (A) (A) (A) (A) (A) (A) (A) (A)
                 (A) (A) (A) (A) (A) (A) (A) (A) (A) (A) (A) (A)
                 (A) (A) (A) (A) (A) (A) (A) (A) (A) (A) (A) (A)
                 (A) (A) (A) (A) (A) (A) (A) (A) (A) (A) (A) (A)
                 (A) (A) (A) (A) (A) (A) (A) (A) (A) (A) (A) (A)
                 (A) (A) (A) (A) (A) (A) (A) (A) (A) (A) (A) (A)
                 (A) (A) (A) (A) (A) (A) (A) (A) (A) (A) (A) (A)
                 (A) (A) (A) (A) (A) (A) (A) (A) (A) (A) (A) (A)
                 (A) (A) (A) (A) (A) (A) (A) (A) (A) (A) (A) (A)
                 (A) (A)
 The electronic state is 1-A.
 Alpha  occ. eigenvalues --  -25.20630 -25.20492 -14.78559 -14.78509 -14.75548
 Alpha  occ. eigenvalues --  -10.61004 -10.59633 -10.58792 -10.58735 -10.58585
 Alpha  occ. eigenvalues --  -10.58516 -10.55870 -10.55487 -10.55474 -10.55416
 Alpha  occ. eigenvalues --  -10.55376 -10.54212 -10.54191 -10.54058 -10.54009
 Alpha  occ. eigenvalues --   -7.12797  -1.32750  -1.29407  -1.10578  -1.08570
 Alpha  occ. eigenvalues --   -1.03571  -0.96578  -0.91204  -0.89062  -0.87623
 Alpha  occ. eigenvalues --   -0.84927  -0.82731  -0.81742  -0.75302  -0.70579
 Alpha  occ. eigenvalues --   -0.69719  -0.68942  -0.66181  -0.66018  -0.65285
 Alpha  occ. eigenvalues --   -0.61649  -0.60880  -0.60170  -0.58763  -0.58456
 Alpha  occ. eigenvalues --   -0.58082  -0.54420  -0.53484  -0.52130  -0.51494
 Alpha  occ. eigenvalues --   -0.51153  -0.51063  -0.50272  -0.49238  -0.48700
 Alpha  occ. eigenvalues --   -0.48079  -0.47323  -0.47267  -0.46894  -0.46764
 Alpha  occ. eigenvalues --   -0.45737  -0.45145  -0.44273  -0.42913  -0.41993
 Alpha  occ. eigenvalues --   -0.40475  -0.39603  -0.35126  -0.32768  -0.32001
 Alpha  occ. eigenvalues --   -0.31682  -0.26243  -0.26076
 Alpha virt. eigenvalues --   -0.08397   0.01477   0.02754   0.05663   0.07149
 Alpha virt. eigenvalues --    0.07717   0.08134   0.08995   0.09608   0.10166
 Alpha virt. eigenvalues --    0.10590   0.11034   0.11933   0.12115   0.12634
 Alpha virt. eigenvalues --    0.12737   0.13299   0.13736   0.14723   0.15945
 Alpha virt. eigenvalues --    0.16127   0.16313   0.17809   0.18405   0.19418
 Alpha virt. eigenvalues --    0.19606   0.20258   0.20480   0.21919   0.22133
 Alpha virt. eigenvalues --    0.22698   0.23216   0.23283   0.24159   0.24706
 Alpha virt. eigenvalues --    0.25163   0.25691   0.25904   0.26264   0.27523
 Alpha virt. eigenvalues --    0.27947   0.28833   0.29505   0.30035   0.30274
 Alpha virt. eigenvalues --    0.30760   0.31961   0.32480   0.32677   0.32920
 Alpha virt. eigenvalues --    0.33454   0.33942   0.34383   0.34503   0.35132
 Alpha virt. eigenvalues --    0.35731   0.35838   0.36622   0.37026   0.38050
 Alpha virt. eigenvalues --    0.38457   0.38589   0.38819   0.39606   0.40121
 Alpha virt. eigenvalues --    0.40466   0.41021   0.41516   0.41687   0.42274
 Alpha virt. eigenvalues --    0.42773   0.43565   0.43919   0.44150   0.44500
 Alpha virt. eigenvalues --    0.45259   0.45646   0.45757   0.46417   0.47122
 Alpha virt. eigenvalues --    0.47626   0.47875   0.48392   0.48595   0.49214
 Alpha virt. eigenvalues --    0.49315   0.49962   0.50632   0.51248   0.51751
 Alpha virt. eigenvalues --    0.52277   0.53552   0.53872   0.54069   0.55029
 Alpha virt. eigenvalues --    0.55073   0.55350   0.56686   0.57640   0.57872
 Alpha virt. eigenvalues --    0.58545   0.59065   0.59955   0.60621   0.61087
 Alpha virt. eigenvalues --    0.62293   0.62702   0.62960   0.63930   0.64779
 Alpha virt. eigenvalues --    0.64989   0.66387   0.66641   0.67009   0.68043
 Alpha virt. eigenvalues --    0.68881   0.69159   0.69387   0.69853   0.70589
 Alpha virt. eigenvalues --    0.72097   0.72534   0.72961   0.73826   0.74219
 Alpha virt. eigenvalues --    0.74534   0.75106   0.75360   0.75804   0.76367
 Alpha virt. eigenvalues --    0.76658   0.77300   0.78183   0.78267   0.79470
 Alpha virt. eigenvalues --    0.79678   0.80702   0.81003   0.81453   0.82776
 Alpha virt. eigenvalues --    0.83686   0.84824   0.85582   0.85896   0.86906
 Alpha virt. eigenvalues --    0.87261   0.88079   0.88533   0.89811   0.90544
 Alpha virt. eigenvalues --    0.91054   0.91861   0.92798   0.94115   0.96029
 Alpha virt. eigenvalues --    0.96809   0.98091   0.98288   0.98661   0.99967
 Alpha virt. eigenvalues --    1.00036   1.00535   1.01237   1.01399   1.02234
 Alpha virt. eigenvalues --    1.02674   1.03977   1.05767   1.06687   1.06695
 Alpha virt. eigenvalues --    1.08342   1.09339   1.10281   1.11002   1.12011
 Alpha virt. eigenvalues --    1.13513   1.14051   1.14375   1.15126   1.16753
 Alpha virt. eigenvalues --    1.17068   1.17382   1.18480   1.19794   1.20465
 Alpha virt. eigenvalues --    1.22145   1.22620   1.23371   1.24413   1.25146
 Alpha virt. eigenvalues --    1.25436   1.26398   1.27200   1.29193   1.29715
 Alpha virt. eigenvalues --    1.29905   1.30894   1.31323   1.32511   1.33037
 Alpha virt. eigenvalues --    1.33621   1.35505   1.35716   1.37185   1.38332
 Alpha virt. eigenvalues --    1.39089   1.40572   1.41396   1.41592   1.42348
 Alpha virt. eigenvalues --    1.42727   1.43478   1.43781   1.44238   1.47215
 Alpha virt. eigenvalues --    1.47555   1.49010   1.49375   1.50696   1.51143
 Alpha virt. eigenvalues --    1.52068   1.52525   1.52590   1.53643   1.54794
 Alpha virt. eigenvalues --    1.55460   1.56274   1.57652   1.58389   1.58726
 Alpha virt. eigenvalues --    1.59137   1.59644   1.60675   1.62112   1.62448
 Alpha virt. eigenvalues --    1.63875   1.64069   1.64462   1.64888   1.66247
 Alpha virt. eigenvalues --    1.66670   1.67161   1.68184   1.69138   1.69996
 Alpha virt. eigenvalues --    1.70446   1.71714   1.72611   1.73727   1.74043
 Alpha virt. eigenvalues --    1.74641   1.75006   1.77282   1.77640   1.79261
 Alpha virt. eigenvalues --    1.79512   1.80154   1.81338   1.82831   1.83332
 Alpha virt. eigenvalues --    1.84007   1.84470   1.85171   1.85933   1.87152
 Alpha virt. eigenvalues --    1.87830   1.89297   1.89964   1.90997   1.93360
 Alpha virt. eigenvalues --    1.94288   1.94748   1.95404   1.96019   1.97347
 Alpha virt. eigenvalues --    1.98390   1.99169   1.99944   2.02117   2.03615
 Alpha virt. eigenvalues --    2.04623   2.05284   2.06028   2.09036   2.09272
 Alpha virt. eigenvalues --    2.10068   2.11573   2.12268   2.12683   2.12949
 Alpha virt. eigenvalues --    2.14160   2.14904   2.16129   2.16449   2.18772
 Alpha virt. eigenvalues --    2.19534   2.20690   2.21157   2.22051   2.23406
 Alpha virt. eigenvalues --    2.23554   2.24420   2.25322   2.26401   2.26595
 Alpha virt. eigenvalues --    2.27208   2.29174   2.29529   2.30540   2.30644
 Alpha virt. eigenvalues --    2.31611   2.32538   2.35158   2.35437   2.38303
 Alpha virt. eigenvalues --    2.38678   2.39162   2.39512   2.40255   2.41261
 Alpha virt. eigenvalues --    2.43320   2.43480   2.46176   2.49460   2.50261
 Alpha virt. eigenvalues --    2.51121   2.51885   2.52547   2.53909   2.54034
 Alpha virt. eigenvalues --    2.54588   2.56000   2.57100   2.57881   2.58947
 Alpha virt. eigenvalues --    2.59438   2.60205   2.60842   2.61208   2.62286
 Alpha virt. eigenvalues --    2.63036   2.63888   2.64247   2.65019   2.65568
 Alpha virt. eigenvalues --    2.66225   2.67120   2.68085   2.69081   2.69475
 Alpha virt. eigenvalues --    2.69678   2.70127   2.70529   2.72515   2.72880
 Alpha virt. eigenvalues --    2.73115   2.74306   2.75378   2.76019   2.76763
 Alpha virt. eigenvalues --    2.77894   2.78310   2.79237   2.79484   2.80320
 Alpha virt. eigenvalues --    2.81168   2.81725   2.82076   2.83230   2.83310
 Alpha virt. eigenvalues --    2.85580   2.86070   2.86436   2.86711   2.88097
 Alpha virt. eigenvalues --    2.89350   2.89999   2.90400   2.91467   2.92201
 Alpha virt. eigenvalues --    2.92770   2.93828   2.94836   2.95864   2.95954
 Alpha virt. eigenvalues --    2.96652   2.98630   2.99519   2.99927   3.00564
 Alpha virt. eigenvalues --    3.00651   3.01084   3.02374   3.02618   3.03126
 Alpha virt. eigenvalues --    3.04679   3.04844   3.06127   3.06751   3.08564
 Alpha virt. eigenvalues --    3.08863   3.09203   3.09873   3.10567   3.10909
 Alpha virt. eigenvalues --    3.11157   3.11862   3.12751   3.13038   3.14602
 Alpha virt. eigenvalues --    3.15020   3.15278   3.15778   3.16377   3.18535
 Alpha virt. eigenvalues --    3.19118   3.19662   3.20514   3.21053   3.21755
 Alpha virt. eigenvalues --    3.21905   3.22511   3.22761   3.23708   3.25000
 Alpha virt. eigenvalues --    3.25724   3.26421   3.26824   3.28167   3.28976
 Alpha virt. eigenvalues --    3.29785   3.30442   3.31545   3.31850   3.32142
 Alpha virt. eigenvalues --    3.32904   3.34255   3.34811   3.35336   3.35835
 Alpha virt. eigenvalues --    3.36242   3.37605   3.38622   3.40310   3.40793
 Alpha virt. eigenvalues --    3.41772   3.42258   3.42816   3.43298   3.44186
 Alpha virt. eigenvalues --    3.45074   3.45223   3.45977   3.46311   3.47924
 Alpha virt. eigenvalues --    3.48662   3.49275   3.50398   3.50981   3.51455
 Alpha virt. eigenvalues --    3.52194   3.52672   3.53729   3.54469   3.54671
 Alpha virt. eigenvalues --    3.56010   3.56767   3.59210   3.59534   3.60049
 Alpha virt. eigenvalues --    3.61231   3.61563   3.63158   3.65171   3.67920
 Alpha virt. eigenvalues --    3.68763   3.70070   3.72598   3.74012   3.75188
 Alpha virt. eigenvalues --    3.75425   3.77674   3.78534   3.78887   3.79572
 Alpha virt. eigenvalues --    3.80788   3.81697   3.82528   3.83338   3.86286
 Alpha virt. eigenvalues --    3.86793   3.91524   3.92021   3.94368   3.95137
 Alpha virt. eigenvalues --    3.96108   3.96383   3.99310   4.01557   4.02532
 Alpha virt. eigenvalues --    4.02797   4.02868   4.04701   4.06702   4.07017
 Alpha virt. eigenvalues --    4.07760   4.08399   4.08506   4.10534   4.11566
 Alpha virt. eigenvalues --    4.12395   4.13524   4.15428   4.16027   4.17286
 Alpha virt. eigenvalues --    4.17575   4.19593   4.19927   4.21102   4.21784
 Alpha virt. eigenvalues --    4.23641   4.24997   4.25074   4.25892   4.26776
 Alpha virt. eigenvalues --    4.27629   4.28354   4.28817   4.30923   4.34099
 Alpha virt. eigenvalues --    4.35541   4.37011   4.38162   4.38935   4.42907
 Alpha virt. eigenvalues --    4.46672   4.48649   4.50320   4.51117   4.53079
 Alpha virt. eigenvalues --    4.54103   4.56100   4.56954   4.61542   4.62463
 Alpha virt. eigenvalues --    4.62862   4.66500   4.69457   4.69971   4.72720
 Alpha virt. eigenvalues --    4.74570   4.75775   4.76305   4.77470   4.78260
 Alpha virt. eigenvalues --    4.78906   4.80106   4.80645   4.82816   4.86388
 Alpha virt. eigenvalues --    4.86539   4.87809   4.88613   4.91450   4.92950
 Alpha virt. eigenvalues --    4.94380   4.96086   4.99065   4.99964   5.01672
 Alpha virt. eigenvalues --    5.05509   5.06240   5.09349   5.11236   5.12933
 Alpha virt. eigenvalues --    5.14340   5.15358   5.20549   5.22308   5.24526
 Alpha virt. eigenvalues --    5.27702   5.28287   5.30436   5.30529   5.31312
 Alpha virt. eigenvalues --    5.33484   5.37882   5.38909   5.42057   5.43192
 Alpha virt. eigenvalues --    5.45737   5.49721   5.54402   5.54692   5.56391
 Alpha virt. eigenvalues --    5.71553   5.72912   5.77298   5.79715   5.82955
 Alpha virt. eigenvalues --    5.87045   5.88503   5.89637   5.93480   6.09991
 Alpha virt. eigenvalues --    6.93609   6.93698   6.96340   6.96514   6.99088
 Alpha virt. eigenvalues --    6.99647   7.05523   7.11247   7.17487   7.22370
 Alpha virt. eigenvalues --    7.24112   7.26880   7.34358   7.36157   8.42535
 Alpha virt. eigenvalues --    8.44907   8.54192   8.56569   8.81922   8.84535
 Alpha virt. eigenvalues --    8.87795   8.89956   8.91382   8.99310  15.90708
 Alpha virt. eigenvalues --   22.38623  22.47344  22.50300  22.73605  22.74642
 Alpha virt. eigenvalues --   22.78292  22.81527  22.83994  22.84854  22.87406
 Alpha virt. eigenvalues --   23.00163  23.08983  23.23009  23.33624  23.57863
 Alpha virt. eigenvalues --   32.18927  33.02243  33.06284  57.22705  57.45570
          Condensed to atoms (all electrons):
               1          2          3          4          5          6
     1  C    5.455444  -0.038723   0.161384   0.458246  -0.083981  -0.155531
     2  C   -0.038723   5.407568   0.157850   0.029142  -0.001780   0.000087
     3  C    0.161384   0.157850   5.756688  -0.122170   0.024005  -0.007949
     4  C    0.458246   0.029142  -0.122170   5.219801   0.490207  -0.064910
     5  C   -0.083981  -0.001780   0.024005   0.490207   5.000754   0.514233
     6  C   -0.155531   0.000087  -0.007949  -0.064910   0.514233   5.036079
     7  H    0.005076   0.000012  -0.000380  -0.025540   0.412755  -0.028019
     8  C   -0.002269  -0.153960   0.000677  -0.000067   0.000107  -0.000128
     9  C    0.029498   0.446587  -0.101452   0.000364  -0.000076   0.000051
    10  C   -0.000158  -0.086766   0.014493  -0.000022  -0.000009   0.000088
    11  H    0.000017   0.005173  -0.000384  -0.000000   0.000000  -0.000000
    12  N    0.354138  -0.015644  -0.035374  -0.115266  -0.088470   0.413246
    13  N   -0.019025   0.347631  -0.030414  -0.000590  -0.000299  -0.001928
    14  B   -0.063310  -0.061786   0.002593   0.003488  -0.006284  -0.020907
    15  F   -0.006015  -0.006185   0.004825   0.000322  -0.000411  -0.004034
    16  F   -0.006116  -0.006877   0.001875   0.000287  -0.000172  -0.001691
    17  C   -0.257107  -0.229245   0.381357  -0.037701   0.005297  -0.004902
    18  C    0.015708   0.022640  -0.109205   0.003018  -0.000308   0.000182
    19  C    0.018982   0.024825  -0.125388   0.007117  -0.000592   0.000516
    20  C   -0.002065  -0.000184   0.009379  -0.000360  -0.000004  -0.000001
    21  H    0.002366   0.001851   0.005657   0.000229  -0.000017  -0.000000
    22  C    0.003560  -0.005335   0.011009  -0.001141  -0.000010   0.000013
    23  H    0.002997   0.002561   0.000607  -0.003282  -0.000100   0.000012
    24  C    0.000140   0.004208  -0.006462   0.000179  -0.000022   0.000004
    25  H    0.000059  -0.000021  -0.000005   0.000002  -0.000000   0.000000
    26  H    0.000202  -0.000034  -0.000175  -0.000020  -0.000010   0.000001
    27  H   -0.000971  -0.028462  -0.001540  -0.000046   0.000004  -0.000003
    28  H    0.000220   0.008827  -0.000761   0.000001   0.000001  -0.000012
    29  H   -0.028870  -0.000807  -0.003704   0.405021  -0.012302   0.003325
    30  H    0.008941   0.000232  -0.000830   0.004385  -0.022374   0.407170
    31  N   -0.000061   0.000020  -0.000079   0.000025   0.000000  -0.000000
    32  H   -0.000002   0.000004   0.000006   0.000001   0.000000  -0.000000
    33  H   -0.000002   0.000004  -0.000002   0.000000   0.000000  -0.000000
               7          8          9         10         11         12
     1  C    0.005076  -0.002269   0.029498  -0.000158   0.000017   0.354138
     2  C    0.000012  -0.153960   0.446587  -0.086766   0.005173  -0.015644
     3  C   -0.000380   0.000677  -0.101452   0.014493  -0.000384  -0.035374
     4  C   -0.025540  -0.000067   0.000364  -0.000022  -0.000000  -0.115266
     5  C    0.412755   0.000107  -0.000076  -0.000009   0.000000  -0.088470
     6  C   -0.028019  -0.000128   0.000051   0.000088  -0.000000   0.413246
     7  H    0.435591  -0.000000  -0.000000   0.000000  -0.000000   0.003577
     8  C   -0.000000   5.030079  -0.072702   0.515233  -0.027972  -0.001496
     9  C   -0.000000  -0.072702   5.207012   0.507305  -0.025558   0.000043
    10  C    0.000000   0.515233   0.507305   4.989263   0.412311  -0.000549
    11  H   -0.000000  -0.027972  -0.025558   0.412311   0.434801   0.000006
    12  N    0.003577  -0.001496   0.000043  -0.000549   0.000006   6.371281
    13  N    0.000006   0.411209  -0.112021  -0.088022   0.003493  -0.036548
    14  B   -0.000023  -0.019762   0.003911  -0.006663  -0.000027   0.349411
    15  F    0.000005  -0.005397   0.000097  -0.000528   0.000007  -0.045623
    16  F    0.000001  -0.000128   0.000409  -0.000106  -0.000001  -0.042627
    17  C    0.000033  -0.003532  -0.034915   0.003341   0.000016   0.010095
    18  C    0.000001   0.000285   0.006956  -0.000265   0.000013  -0.000372
    19  C    0.000008   0.000164   0.002045  -0.000228   0.000002   0.000342
    20  C   -0.000000  -0.000012  -0.000589   0.000033   0.000001   0.000016
    21  H    0.000000   0.000038  -0.002890  -0.000080  -0.000001  -0.000015
    22  C    0.000000  -0.000008  -0.000095   0.000013  -0.000000  -0.000035
    23  H    0.000002   0.000000   0.000147  -0.000014   0.000000   0.000016
    24  C    0.000000   0.000012  -0.000453  -0.000056   0.000000   0.000003
    25  H   -0.000000  -0.000000   0.000072  -0.000003   0.000000  -0.000000
    26  H   -0.000000  -0.000000   0.000009   0.000000  -0.000000   0.000001
    27  H    0.000000   0.002647   0.400496  -0.009733  -0.001153   0.000043
    28  H   -0.000000   0.406959   0.004308  -0.022428  -0.000479   0.000012
    29  H   -0.001183  -0.000003  -0.000014   0.000003  -0.000000   0.003428
    30  H   -0.000474  -0.000016   0.000001   0.000001  -0.000000  -0.031133
    31  N    0.000000   0.000000   0.000004   0.000000   0.000000  -0.000000
    32  H    0.000000   0.000000  -0.000000  -0.000000   0.000000  -0.000000
    33  H   -0.000000   0.000000  -0.000001  -0.000000  -0.000000  -0.000000
              13         14         15         16         17         18
     1  C   -0.019025  -0.063310  -0.006015  -0.006116  -0.257107   0.015708
     2  C    0.347631  -0.061786  -0.006185  -0.006877  -0.229245   0.022640
     3  C   -0.030414   0.002593   0.004825   0.001875   0.381357  -0.109205
     4  C   -0.000590   0.003488   0.000322   0.000287  -0.037701   0.003018
     5  C   -0.000299  -0.006284  -0.000411  -0.000172   0.005297  -0.000308
     6  C   -0.001928  -0.020907  -0.004034  -0.001691  -0.004902   0.000182
     7  H    0.000006  -0.000023   0.000005   0.000001   0.000033   0.000001
     8  C    0.411209  -0.019762  -0.005397  -0.000128  -0.003532   0.000285
     9  C   -0.112021   0.003911   0.000097   0.000409  -0.034915   0.006956
    10  C   -0.088022  -0.006663  -0.000528  -0.000106   0.003341  -0.000265
    11  H    0.003493  -0.000027   0.000007  -0.000001   0.000016   0.000013
    12  N   -0.036548   0.349411  -0.045623  -0.042627   0.010095  -0.000372
    13  N    6.375529   0.349649  -0.044876  -0.042540   0.011077   0.000376
    14  B    0.349649   3.328227   0.378310   0.365792   0.010692   0.000063
    15  F   -0.044876   0.378310   9.129693  -0.034027   0.000259  -0.000002
    16  F   -0.042540   0.365792  -0.034027   9.131639   0.000055   0.000003
    17  C    0.011077   0.010692   0.000259   0.000055   5.473515   0.437010
    18  C    0.000376   0.000063  -0.000002   0.000003   0.437010   5.142410
    19  C   -0.000545  -0.000248   0.000001  -0.000003   0.445951  -0.016451
    20  C   -0.000003   0.000006  -0.000000   0.000000  -0.074423   0.493574
    21  H   -0.000144  -0.000012  -0.000000  -0.000000  -0.048794   0.410265
    22  C    0.000012   0.000001   0.000000   0.000000  -0.072946  -0.048572
    23  H   -0.000002   0.000015  -0.000000  -0.000000  -0.049149   0.005148
    24  C    0.000001   0.000004   0.000000  -0.000000  -0.025720  -0.051159
    25  H    0.000000   0.000000   0.000000   0.000000   0.003389  -0.011561
    26  H   -0.000000   0.000001   0.000000   0.000000   0.004221  -0.000318
    27  H    0.003373   0.000472   0.000006   0.000005   0.000333  -0.003212
    28  H   -0.031240  -0.002148  -0.000567   0.001403  -0.000035   0.000004
    29  H    0.000039   0.000439   0.000003   0.000007  -0.001013   0.000013
    30  H    0.000039  -0.002467  -0.000667   0.001803  -0.000044  -0.000000
    31  N    0.000000   0.000000   0.000000  -0.000000   0.002086   0.000174
    32  H    0.000000  -0.000000   0.000000  -0.000000  -0.000002  -0.000885
    33  H    0.000000   0.000000   0.000000  -0.000000  -0.000106   0.001603
              19         20         21         22         23         24
     1  C    0.018982  -0.002065   0.002366   0.003560   0.002997   0.000140
     2  C    0.024825  -0.000184   0.001851  -0.005335   0.002561   0.004208
     3  C   -0.125388   0.009379   0.005657   0.011009   0.000607  -0.006462
     4  C    0.007117  -0.000360   0.000229  -0.001141  -0.003282   0.000179
     5  C   -0.000592  -0.000004  -0.000017  -0.000010  -0.000100  -0.000022
     6  C    0.000516  -0.000001  -0.000000   0.000013   0.000012   0.000004
     7  H    0.000008  -0.000000   0.000000   0.000000   0.000002   0.000000
     8  C    0.000164  -0.000012   0.000038  -0.000008   0.000000   0.000012
     9  C    0.002045  -0.000589  -0.002890  -0.000095   0.000147  -0.000453
    10  C   -0.000228   0.000033  -0.000080   0.000013  -0.000014  -0.000056
    11  H    0.000002   0.000001  -0.000001  -0.000000   0.000000   0.000000
    12  N    0.000342   0.000016  -0.000015  -0.000035   0.000016   0.000003
    13  N   -0.000545  -0.000003  -0.000144   0.000012  -0.000002   0.000001
    14  B   -0.000248   0.000006  -0.000012   0.000001   0.000015   0.000004
    15  F    0.000001  -0.000000  -0.000000   0.000000  -0.000000   0.000000
    16  F   -0.000003   0.000000  -0.000000   0.000000  -0.000000  -0.000000
    17  C    0.445951  -0.074423  -0.048794  -0.072946  -0.049149  -0.025720
    18  C   -0.016451   0.493574   0.410265  -0.048572   0.005148  -0.051159
    19  C    5.156751  -0.047555   0.002915   0.487487   0.415547  -0.047130
    20  C   -0.047555   5.082367  -0.017782  -0.011581  -0.001745   0.494495
    21  H    0.002915  -0.017782   0.424345  -0.000908  -0.000173   0.003107
    22  C    0.487487  -0.011581  -0.000908   5.091232  -0.022026   0.484277
    23  H    0.415547  -0.001745  -0.000173  -0.022026   0.428404   0.004371
    24  C   -0.047130   0.494495   0.003107   0.484277   0.004371   4.723426
    25  H   -0.000109   0.396141  -0.003333   0.003190   0.000029  -0.029897
    26  H   -0.013616   0.003520   0.000032   0.398848  -0.003697  -0.031960
    27  H    0.000157   0.000644  -0.004186  -0.000148   0.000032   0.000286
    28  H   -0.000001   0.000000   0.000001   0.000000  -0.000000   0.000000
    29  H   -0.003709   0.000030   0.000032   0.000541  -0.002508   0.000083
    30  H    0.000009   0.000000  -0.000000   0.000000   0.000000   0.000000
    31  N    0.000863  -0.056560  -0.000132  -0.058519  -0.000118   0.295427
    32  H    0.001723   0.004218   0.000013  -0.007355  -0.000028  -0.038320
    33  H   -0.000665  -0.007448  -0.000022   0.003845   0.000015  -0.038215
              25         26         27         28         29         30
     1  C    0.000059   0.000202  -0.000971   0.000220  -0.028870   0.008941
     2  C   -0.000021  -0.000034  -0.028462   0.008827  -0.000807   0.000232
     3  C   -0.000005  -0.000175  -0.001540  -0.000761  -0.003704  -0.000830
     4  C    0.000002  -0.000020  -0.000046   0.000001   0.405021   0.004385
     5  C   -0.000000  -0.000010   0.000004   0.000001  -0.012302  -0.022374
     6  C    0.000000   0.000001  -0.000003  -0.000012   0.003325   0.407170
     7  H   -0.000000  -0.000000   0.000000  -0.000000  -0.001183  -0.000474
     8  C   -0.000000  -0.000000   0.002647   0.406959  -0.000003  -0.000016
     9  C    0.000072   0.000009   0.400496   0.004308  -0.000014   0.000001
    10  C   -0.000003   0.000000  -0.009733  -0.022428   0.000003   0.000001
    11  H    0.000000  -0.000000  -0.001153  -0.000479  -0.000000  -0.000000
    12  N   -0.000000   0.000001   0.000043   0.000012   0.003428  -0.031133
    13  N    0.000000  -0.000000   0.003373  -0.031240   0.000039   0.000039
    14  B    0.000000   0.000001   0.000472  -0.002148   0.000439  -0.002467
    15  F    0.000000   0.000000   0.000006  -0.000567   0.000003  -0.000667
    16  F    0.000000   0.000000   0.000005   0.001403   0.000007   0.001803
    17  C    0.003389   0.004221   0.000333  -0.000035  -0.001013  -0.000044
    18  C   -0.011561  -0.000318  -0.003212   0.000004   0.000013  -0.000000
    19  C   -0.000109  -0.013616   0.000157  -0.000001  -0.003709   0.000009
    20  C    0.396141   0.003520   0.000644   0.000000   0.000030   0.000000
    21  H   -0.003333   0.000032  -0.004186   0.000001   0.000032  -0.000000
    22  C    0.003190   0.398848  -0.000148   0.000000   0.000541   0.000000
    23  H    0.000029  -0.003697   0.000032  -0.000000  -0.002508   0.000000
    24  C   -0.029897  -0.031960   0.000286   0.000000   0.000083   0.000000
    25  H    0.446956  -0.000260   0.000018   0.000000   0.000001  -0.000000
    26  H   -0.000260   0.448090  -0.000001  -0.000000   0.000065   0.000000
    27  H    0.000018  -0.000001   0.412554  -0.000081  -0.000005  -0.000000
    28  H    0.000000  -0.000000  -0.000081   0.413570  -0.000000  -0.000002
    29  H    0.000001   0.000065  -0.000005  -0.000000   0.415644  -0.000082
    30  H   -0.000000   0.000000  -0.000000  -0.000002  -0.000082   0.414790
    31  N    0.001389   0.001186  -0.000005  -0.000000  -0.000016  -0.000000
    32  H   -0.000197   0.001739   0.000000   0.000000  -0.000001   0.000000
    33  H    0.001896  -0.000248   0.000001   0.000000  -0.000000   0.000000
              31         32         33
     1  C   -0.000061  -0.000002  -0.000002
     2  C    0.000020   0.000004   0.000004
     3  C   -0.000079   0.000006  -0.000002
     4  C    0.000025   0.000001   0.000000
     5  C    0.000000   0.000000   0.000000
     6  C   -0.000000  -0.000000  -0.000000
     7  H    0.000000   0.000000  -0.000000
     8  C    0.000000   0.000000   0.000000
     9  C    0.000004  -0.000000  -0.000001
    10  C    0.000000  -0.000000  -0.000000
    11  H    0.000000   0.000000  -0.000000
    12  N   -0.000000  -0.000000  -0.000000
    13  N    0.000000   0.000000   0.000000
    14  B    0.000000  -0.000000   0.000000
    15  F    0.000000   0.000000   0.000000
    16  F   -0.000000  -0.000000  -0.000000
    17  C    0.002086  -0.000002  -0.000106
    18  C    0.000174  -0.000885   0.001603
    19  C    0.000863   0.001723  -0.000665
    20  C   -0.056560   0.004218  -0.007448
    21  H   -0.000132   0.000013  -0.000022
    22  C   -0.058519  -0.007355   0.003845
    23  H   -0.000118  -0.000028   0.000015
    24  C    0.295427  -0.038320  -0.038215
    25  H    0.001389  -0.000197   0.001896
    26  H    0.001186   0.001739  -0.000248
    27  H   -0.000005   0.000000   0.000001
    28  H   -0.000000   0.000000   0.000000
    29  H   -0.000016  -0.000001  -0.000000
    30  H   -0.000000   0.000000   0.000000
    31  N    6.632766   0.381435   0.381784
    32  H    0.381435   0.385227  -0.022566
    33  H    0.381784  -0.022566   0.385176
 Mulliken charges:
               1
     1  C    0.147229
     2  C    0.176585
     3  C    0.013868
     4  C   -0.250720
     5  C   -0.230143
     6  C   -0.084991
     7  H    0.198553
     8  C   -0.079958
     9  C   -0.258547
    10  C   -0.226454
    11  H    0.199737
    12  N   -0.092505
    13  N   -0.094240
    14  B    0.390563
    15  F   -0.365196
    16  F   -0.368991
    17  C    0.050910
    18  C   -0.297138
    19  C   -0.309166
    20  C   -0.264111
    21  H    0.227637
    22  C   -0.255351
    23  H    0.222936
    24  C    0.259371
    25  H    0.192245
    26  H    0.192425
    27  H    0.228475
    28  H    0.222448
    29  H    0.225541
    30  H    0.220717
    31  N   -0.581671
    32  H    0.294990
    33  H    0.294952
 Sum of Mulliken charges =  -0.00000
 Mulliken charges with hydrogens summed into heavy atoms:
               1
     1  C    0.147229
     2  C    0.176585
     3  C    0.013868
     4  C   -0.025179
     5  C   -0.031589
     6  C    0.135727
     8  C    0.142490
     9  C   -0.030073
    10  C   -0.026717
    12  N   -0.092505
    13  N   -0.094240
    14  B    0.390563
    15  F   -0.365196
    16  F   -0.368991
    17  C    0.050910
    18  C   -0.069501
    19  C   -0.086231
    20  C   -0.071866
    22  C   -0.062926
    24  C    0.259371
    31  N    0.008271
 Electronic spatial extent (au):  <R**2>=           6244.7279
 Charge=              0.0000 electrons
 Dipole moment (field-independent basis, Debye):
    X=             -8.8063    Y=             -0.3899    Z=             -1.4040  Tot=              8.9260
 Quadrupole moment (field-independent basis, Debye-Ang):
   XX=           -102.8823   YY=            -94.7649   ZZ=           -127.4675
   XY=              5.0122   XZ=              2.5668   YZ=             -3.9476
 Traceless Quadrupole moment (field-independent basis, Debye-Ang):
   XX=              5.4893   YY=             13.6066   ZZ=            -19.0959
   XY=              5.0122   XZ=              2.5668   YZ=             -3.9476
 Octapole moment (field-independent basis, Debye-Ang**2):
  XXX=           -274.6807  YYY=              1.8338  ZZZ=              0.3964  XYY=             46.8374
  XXY=            -25.1959  XXZ=            -31.3663  XZZ=            -14.0684  YZZ=             -1.2415
  YYZ=             -3.8902  XYZ=             28.2659
 Hexadecapole moment (field-independent basis, Debye-Ang**3):
 XXXX=          -4323.0934 YYYY=          -1852.4183 ZZZZ=           -369.2974 XXXY=            182.6110
 XXXZ=            169.0028 YYYX=             11.6540 YYYZ=             29.5879 ZZZX=              4.0527
 ZZZY=            -23.1490 XXYY=          -1109.0294 XXZZ=          -1046.2798 YYZZ=           -462.3748
 XXYZ=           -103.5640 YYXZ=             -2.3306 ZZXY=              1.9361
 N-N= 1.584454892982D+03 E-N=-5.430415774309D+03  KE= 9.628183031504D+02
 Unable to Open any file for archive entry.
 1\1\GINC-X1001C0S1B1N0\SP\RM062X TD-FC\def2TZVP\C15H12B1F2N3\1008721\1
 0-Oct-2025\0\\# m062x/def2tzvp geom=check guess=read TD=(Read, NStates
 =3, Root=2) SCRF=(SMD, solvent=ethanol, CorrectedLR, NonEq=Save)\\BDP-
 NH2_ethanol_m062x_m062x_m062x\\0,1\C,0,0.6239481416,-1.2045350429,-0.1
 064692806\C,0,0.6369588477,1.2260360982,0.033041172\C,0,-0.1101585471,
 0.0134355618,-0.0183604146\C,0,0.1752098902,-2.5464924571,-0.311089767
 3\C,0,1.3054085904,-3.3486631901,-0.373185429\C,0,2.4276600853,-2.4979
 752954,-0.2165535198\H,0,1.347793841,-4.4246988271,-0.5272085077\C,0,2
 .4612135136,2.4936949711,0.0981331454\C,0,0.2072836624,2.5915842853,0.
 1028289629\C,0,1.3488545396,3.3752447178,0.1358450174\H,0,1.4081359041
 ,4.4602083862,0.1885706219\N,0,2.0189131224,-1.230981916,-0.0567644237
 \N,0,2.0350983078,1.2251804347,0.0424743727\B,0,2.9555582074,-0.016455
 5853,0.1242788581\F,0,3.5960776786,-0.0641877104,1.3604198262\F,0,3.91
 08455307,0.0169763735,-0.8846905303\C,0,-1.5784472873,0.014985039,0.00
 85606059\C,0,-2.3331642198,0.8911548437,-0.794956838\C,0,-2.2894969194
 ,-0.8739183225,0.8380261551\C,0,-3.7199705444,0.8831606978,-0.77331183
 69\H,0,-1.8213720963,1.5729415223,-1.4774034315\C,0,-3.6758296839,-0.8
 861716672,0.8709841858\H,0,-1.73894637,-1.5560245488,1.4897350535\C,0,
 -4.4259355295,-0.0046067407,0.0650461204\H,0,-4.2797464119,1.564556757
 4,-1.4177014057\H,0,-4.2000842296,-1.5772494184,1.534676123\H,0,-0.826
 0617297,2.9258197536,0.1336988254\H,0,3.525308705,2.7307882056,0.12216
 01592\H,0,-0.8623891518,-2.8513073942,-0.4208144117\H,0,3.4880522887,-
 2.7508868905,-0.2237487275\N,0,-5.7935179459,0.0198642008,0.1273939314
 \H,0,-6.2585809323,-0.7896632594,0.5227845478\H,0,-6.2887812578,0.4636
 894171,-0.6379181597\\Version=ES64L-G16RevC.01\State=1-A\HF=-967.82706
 39\RMSD=9.428e-10\Dipole=-3.4638448,-0.1583566,-0.5561111\Quadrupole=4
 .0647431,10.1382157,-14.2029588,3.7160633,1.9376481,-2.8883965\PG=C01 
 [X(C15H12B1F2N3)]\\@
 The archive entry for this job was punched.


 REALITY IS FOR PEOPLE WHO CAN'T FACE SCIENCE FICTION.
 Job cpu time:       1 days 23 hours 54 minutes  9.2 seconds.
 Elapsed time:       0 days  1 hours 30 minutes 29.4 seconds.
 File lengths (MBytes):  RWF=   1596 Int=      0 D2E=      0 Chk=     91 Scr=      1
 Normal termination of Gaussian 16 at Fri Oct 10 02:12:31 2025.
